default_name
  5451
  18.7529872  21.3077828  13.4050409  18.2329872  21.8447828  12.7250409
  18.3994165  20.3791874  13.2239365  19.7357410  21.5065712  13.2834773
  18.4729872  21.5627828  14.8610409  18.0959872  20.6387828  15.2700409
  19.7609872  21.9917828  15.6380409  20.1359872  22.9687828  15.2660409
  19.5379872  22.1037828  16.7210409  20.8449872  20.9597828  15.5340409
  22.0849872  21.2677828  14.9590409  22.2789872  22.2747828  14.5980409
  23.0849872  20.2957828  14.8300409  24.0349872  20.5417828  14.3700409
  22.8399872  18.9827828  15.2810409  23.5969872  18.2267828  15.1690409
  21.6119872  18.6687828  15.8690409  21.4119872  17.6597828  16.2070409
  20.6269872  19.6477828  16.0020409  19.6839872  19.3937828  16.4520409
  17.3689872  22.5847828  15.1080409  16.9709872  23.3097828  14.2000409
  16.8349872  22.6557828  16.3470409  17.1489872  22.0667828  17.0900409
  15.8009872  23.6017828  16.7400409  15.6649872  24.3447828  15.9700409
  14.4569872  22.9427828  17.0600409  14.5799872  22.2377828  17.9150409
  13.4189872  24.0217828  17.4700409  12.4389872  23.5437828  17.6720409
  13.7239872  24.5607828  18.3900409  13.2849872  24.7677828  16.6560409
  13.9029872  22.1337828  15.8540409  12.7949872  22.2317828  15.8500409
  14.2679872  22.5747828  14.9040409  14.2249872  20.6397828  15.9140409
  13.8679872  20.2147828  16.8770409  13.6929872  20.0947828  15.1010409
  15.3089872  20.4547828  15.8310409  16.3339872  24.3217828  17.9700409
  16.7569872  23.6917828  18.9370409  16.3549872  25.6737828  17.9580409
  16.0719872  26.1587828  17.1280409  16.8639872  26.4857828  19.0360409
  17.6189872  25.9287828  19.5700409  17.5149872  27.7367828  18.3840409
  18.2259872  27.4077828  17.5980409  16.7149872  28.3327828  17.8800409
  18.2539872  28.6317828  19.3410409  18.6109872  28.1937828  20.4650409
  18.5879872  29.7667828  18.9180409  15.7579872  26.8517828  20.0330409
  14.8789872  27.6567828  19.7350409  15.7409872  26.2617828  21.2530409
  16.5019872  25.6897828  21.5600409  14.5419872  26.2747828  22.0980409
  13.6729872  26.3917828  21.4670409  14.3299872  24.9857828  22.8990409
  13.3089872  24.9937828  23.3490409  14.4379872  23.7627828  21.9740409
  14.1639872  22.8357828  22.5170409  15.4699872  23.6357828  21.5920409
  13.7619872  23.8667828  21.1020409  15.2869872  24.7817828  23.9410409
  14.9879872  23.9697828  24.3980409  14.5179872  27.4427828  23.0650409
  13.5069872  27.7307828  23.6970409  15.6429872  28.1817828  23.1830409
  16.4679872  27.8757828  22.7160409  15.7319872  29.3987828  23.9800409
  14.7959872  29.5807828  24.4830409  16.8389872  29.2667828  25.0700409
  16.9029872  30.2007828  25.6690409  16.5249872  28.4497828  25.7540409
  18.2319872  28.9227828  24.5320409  18.5459872  28.8227828  23.3400409
  19.1529872  28.6947828  25.4960409  18.9289872  28.8237828  26.4590409
  20.0179872  28.2637828  25.2100409  15.9709872  30.6067828  23.0910409
  16.2119872  31.7097828  23.5840409  15.8489872  30.4147828  21.7640409
  15.5569872  29.5117828  21.4600409  16.0479872  31.3877828  20.6960409
  16.3509872  30.8197828  19.8280409  14.6839872  32.0827828  20.3720409
  14.3269872  32.6297828  21.2660409  14.7809872  32.7887828  19.5260409
  13.6229872  31.0257828  20.0300409  12.7169872  30.7167828  20.8070409
  13.7349872  30.4407828  18.8170409  14.4769872  30.6957828  18.2100409
  13.0869872  29.7167828  18.5920409  17.1659872  32.4137828  20.9140409
  16.9209872  33.6207828  21.0020409  18.4179872  31.9327828  21.0050409
  18.5889872  30.9507828  20.8690409  19.6089872  32.7197828  21.2830409
  19.3169872  33.7297828  21.5450409  20.4189872  32.1087828  22.4720409
  21.3689872  32.6717828  22.6190409  19.8129872  32.2457828  23.3930409
  20.7559872  30.6317828  22.3690409  20.4109872  29.9407828  21.3770409
  21.3259872  30.0277828  23.2960409  20.5009872  32.8667828  20.0480409
  21.3209872  33.7767828  19.9790409  20.3459872  31.9907828  19.0300409
  19.6569872  31.2547828  19.0950409  21.1869872  31.9847828  17.8330409
  20.5669872  31.6777828  17.0040409  21.6259872  32.9607828  17.6740409
  22.3129872  31.0017828  17.9250409  23.1689872  30.9267828  17.0430409
  22.3279872  30.1817828  18.9890409  21.6159872  30.2747828  19.6890409
  23.3049872  29.1257828  19.1740409  23.8589872  28.9747828  18.2520409
  24.3079872  29.3967828  20.3330409  23.7529872  29.3987828  21.2920409
  25.0579872  28.5777828  20.3870409  25.0459872  30.6897828  20.2190409
  24.7529872  31.8517828  20.8740409  23.9239872  31.9717828  21.5660409
  25.6299872  32.8347828  20.4830409  25.5289872  33.8017828  20.6350409
  26.5329872  32.3127828  19.5940409  27.5869872  32.9107828  18.9450409
  27.8429872  33.9417828  19.1220409  28.3269872  32.1357828  18.0560409
  29.1479872  32.5717828  17.5100409  28.0159872  30.7997828  17.8280409
  28.6049872  30.2247828  17.1350409  26.9509872  30.1837828  18.5070409
  26.7229872  29.1487828  18.3320409  26.1909872  30.9637828  19.3890409
  22.5819872  27.8397828  19.4920409  21.4289872  27.8237828  19.9400409
  23.2789872  26.7157828  19.2640409  24.2259872  26.7717828  18.9390409
  22.7679872  25.3757828  19.4340409  21.7139872  25.3987828  19.6490409
  22.9559872  24.5867828  18.1360409  24.0459872  24.6047828  17.8760409
  22.5409872  23.1157828  18.3170409  21.4699872  23.0237828  18.5700409
  22.7259872  22.5527828  17.3760409  23.1319872  22.6317828  19.1200409
  22.1789872  25.2317828  16.9600409  22.6709872  26.1927828  16.6590409
  22.2529872  24.5557828  16.0870409  20.6949872  25.5237828  17.2310409
  20.1659872  25.7477828  16.2880409  20.1949872  24.6527828  17.7210409
  20.5779872  26.4047828  17.9040409  23.4679872  24.7447828  20.6300409
  24.6589872  24.4597828  20.5910409  22.7289872  24.5337828  21.7390409
  21.7579872  24.7997828  21.7530409  23.2889872  24.0987828  23.0060409
  24.0699872  23.3827828  22.7900409  23.9309872  25.2907828  23.7950409
  24.5709872  24.8537828  24.6000409  24.6069872  25.8247828  23.0970409
  23.0019872  26.3447828  24.4790409  22.4719872  25.8777828  25.3420409
  23.6549872  27.1507828  24.8780409  21.9849872  26.9847828  23.5810409
  22.2469872  27.4617828  22.4560409  20.7739872  27.0887828  23.9050409
  22.2379872  23.3637828  23.8220409  21.0399872  23.6087828  23.7230409
  22.6609872  22.3857828  24.6540409  23.6519872  22.2537828  24.7790409
  21.7639872  21.4987828  25.3910409  22.3869872  20.8277828  25.9690409
  21.1189872  22.1137828  26.0100409  20.8649872  20.6107828  24.5420409
  21.3259872  19.9317828  23.6230409  19.5429872  20.5787828  24.8380409
  19.1829872  21.2007828  25.5250409  18.5239872  19.7027828  24.2350409
  18.7969872  18.6807828  24.4580409  17.1689872  20.0527828  24.9120409
  17.2909872  20.0287828  26.0180409  16.8779872  21.0857828  24.6250409
  15.9989872  19.1337828  24.5730409  14.8489872  19.5707828  24.8540409
  16.1979872  17.9697828  24.1320409  18.4679872  19.8407828  22.7020409
  18.2759872  18.8717828  21.9640409  18.7309872  21.0697828  22.2430409
  18.8849872  21.7917828  22.9110409  18.8649872  21.5427828  20.8780409
  17.8899872  21.5477828  20.4120409  19.4459872  22.9837828  20.9290409
  20.4599872  22.9397828  21.3710409  19.5439872  23.3797828  19.8940409
  18.5759872  23.9867828  21.7520409  17.5709872  24.0357828  21.2890409
  18.4549872  23.6327828  22.7980409  19.1219872  25.3907828  21.8340409
  18.5169872  26.2967828  22.4540409  20.1989872  25.7617828  21.2950409
  19.7829872  20.6657828  20.0080409  19.5149872  20.4437828  18.8320409
  20.8809872  20.1247828  20.5880409  21.0529872  20.2817828  21.5670409
  21.8449872  19.2737828  19.9150409  22.0739872  19.7067828  18.9450409
  23.1369872  19.1737828  20.7620409  22.8479872  18.9527828  21.8210409
  23.7849872  18.3447828  20.4200409  24.0049872  20.4457828  20.7320409
  23.3309872  21.3357828  20.8240409  24.9739872  20.4797828  21.9210409
  25.6979872  19.6417828  21.8480409  24.4219872  20.3967828  22.8830409
  25.5399872  21.4327828  21.9190409  24.7759872  20.5207828  19.4060409
  24.0889872  20.5507828  18.5410409  25.4359872  19.6277828  19.2980409
  25.4149872  21.4327828  19.4060409  21.3669872  17.8557828  19.6490409
  21.9459872  17.1267828  18.8430409  20.2969872  17.4107828  20.3210409
  19.8289872  18.0157828  20.9720409  19.7349872  16.0827828  20.1720409
  20.4359872  15.4367828  19.6600409  19.4059872  15.4417828  21.5450409
  18.6449872  16.0677828  22.0770409  18.9539872  14.4367828  21.3620409
  20.6029872  15.2517828  22.5130409  21.5069872  15.0217828  21.9060409
  20.8849872  16.4897828  23.3690409  19.9859872  16.7957828  23.9340409
  21.2109872  17.3587828  22.7540409  21.6939872  16.2757828  24.1000409
  20.3559872  14.0537828  23.4430409  20.1989872  13.1167828  22.8580409
  19.4569872  14.2217828  24.0760409  21.2249872  13.8927828  24.1120409
  18.4899872  16.1537828  19.2980409  17.7189872  15.1897828  19.2140409
  18.2569872  17.3077828  18.6370409  18.8929872  18.0637828  18.7300409
  17.1149872  17.5637828  17.8050409  16.3949872  16.7707828  17.9310409
  16.4889872  18.8987828  18.2430409  17.1699872  19.7427828  18.0020409
  16.3219872  18.8937828  19.3390409  15.5149872  19.0607828  17.7430409
  17.4639872  17.5817828  16.2890409  18.2149872  16.6877828  15.8090409
  17.0169780  18.4615221  15.5564557  20.1419872  27.8637828  21.9500409
  13.8843340  15.7197850  19.9839620  20.7561960  13.9185150  15.9169640
  34.4309700  43.6002650  30.0818770  33.5994580  43.3451360  30.4815280
  35.0390680  43.6713420  30.8176690  32.8401650  38.5604540  23.8661160
  31.9518350  38.9020510  23.7641040  33.1242840  38.3604860  22.9741990
  30.8034660  41.1610190  29.7500860  31.3750770  40.3932390  29.7504500
  30.8036200  41.4598950  28.8407470  32.0459530  36.5694550  31.5369790
  31.8662370  35.6720300  31.8172550  31.6439610  37.1166420  32.2116740
  35.0163040  37.1436040  24.8999540  35.1229790  38.0439770  25.2068300
  34.1055400  37.0954010  24.6094190  32.6646200  39.0655050  30.1452130
  33.3456310  39.3293420  30.7639530  32.3494250  38.2255920  30.4790140
  36.8570770  40.1122410  29.2324720  37.3648990  40.6103380  29.8729740
  37.3884010  39.3357610  29.0564080  35.1406870  34.7520970  33.4988140
  35.1425310  35.2693360  32.6934040  34.3111180  34.2751150  33.4758070
  36.3909720  44.3916150  31.6761640  36.0579100  45.0185070  32.3182710
  36.5676400  44.9178030  30.8963310  34.8222200  36.4630930  31.5058590
  35.1639010  37.3072980  31.2112460  33.8838010  36.6114670  31.6223930
  38.5050090  33.9513200  27.8303180  38.8125070  33.3960090  27.1138680
  37.5750790  34.0857660  27.6476170  36.4987490  42.5426770  27.3483030
  36.0944490  41.8304020  26.8528930  36.5850610  42.1980010  28.2371070
  35.2116110  39.3169980  31.1282070  35.7630700  39.4265320  30.3535320
  35.7259620  39.6907580  31.8437300  34.8858840  42.8389340  34.7387410
  34.7466610  43.7112140  35.1074810  34.0040200  42.4962150  34.5935350
  33.1992120  41.4371750  24.8489680  33.0789720  42.1633840  24.2370950
  32.8893010  40.6674660  24.3717590  30.8377490  44.6086890  30.6558320
  30.9157910  44.7435660  29.7114040  31.4519170  43.9002780  30.8486440
  35.6655780  34.7806820  28.2313350  35.2223930  35.5616360  27.8997870
  36.2240770  35.1036710  28.9384290  39.9525590  37.6475340  33.8348670
  39.4904960  37.8558360  34.6468610  39.5503700  36.8334690  33.5319340
  38.7814600  34.4017520  23.1119180  38.1568780  34.3977390  23.8372490
  38.6944720  33.5348480  22.7155150  37.7031680  35.3254150  30.0902950
  38.0004010  36.2316980  30.0094970  38.2517240  34.8372930  29.4762520
  35.4570000  39.9040390  25.9594600  35.2310920  39.6877560  26.8641220
  34.6762530  40.3368850  25.6140570  37.8969210  40.8025970  36.6254870
  37.8012810  39.8620700  36.4755270  38.7401190  41.0241040  36.2302940
  33.0279750  37.2139640  34.7788650  32.6343140  38.0614850  34.9861430
  32.3398150  36.5766010  34.9697290  30.3296800  35.1368100  28.8118730
  30.0409850  35.7070960  29.5243710  31.0742560  34.6572550  29.1749960
  30.5167030  39.0788220  20.0221450  30.4341700  40.0218980  20.1636440
  30.1650090  38.9363130  19.1433800  38.3165160  37.8127250  29.0891800
  38.3201220  37.3717200  28.2396340  39.2116280  38.1344580  29.1963620
  34.1667540  37.6953740  28.0486010  33.8267590  38.1728970  28.8053060
  33.4044860  37.2418860  27.6887110  38.3785310  38.8139330  22.0798560
  38.4998130  38.7725810  23.0284380  37.9933820  39.6763480  21.9245290
  37.3906810  41.1240470  21.4781860  36.8223710  40.6758720  20.8517770
  38.0995810  41.4833250  20.9447010  38.6173130  41.8729030  30.8357210
  38.9843260  41.3987600  31.5818550  38.4278190  42.7470600  31.1765550
  31.4813620  36.6172720  26.9650680  31.1960540  36.2528390  27.8029300
  31.4192480  35.8853180  26.3513820  36.4072500  40.9137670  33.1541420
  36.1029570  41.7929650  33.3791780  37.3618960  40.9737460  33.1898860
  34.9354290  45.1198660  23.7508270  34.1616550  44.5796280  23.5906990
  35.6648920  44.6005270  23.4126030  34.9791690  44.7879040  27.3887080
  35.4970360  43.9847300  27.3343970  34.5275710  44.7258180  28.2303910
  32.4636230  41.7540410  34.3012780  32.1051170  42.4194260  34.8886120
  32.1690790  40.9223960  34.6725400  35.6649350  42.2124650  37.1852330
  35.3649490  42.3581830  36.2880150  36.4360590  41.6529940  37.0925720
  30.9744280  41.7531670  20.9247380  31.8439130  42.0356470  21.2083300
  30.4834600  42.5667540  20.8096190  38.1379090  43.1404880  25.0455660
  38.5941870  43.9510130  25.2715850  37.7867300  42.8228020  25.8774150
  34.0390870  33.4842530  25.5178180  33.9105500  33.4760430  26.4663100
  33.2152890  33.8225620  25.1669190  31.0384800  35.2433650  34.9784880
  30.3243320  35.4430570  35.5837490  31.4579840  34.4673220  35.3499680
  32.9590790  43.5705140  23.0529440  32.3518740  44.3104040  23.0624740
  33.4340140  43.6604500  22.2267640  37.8669640  38.9698850  24.9531770
  37.1585790  39.4385190  25.3945380  38.1514120  38.3120860  25.5876960
  39.4925570  40.3895550  32.9524300  39.9910820  40.8641370  33.6176150
  39.6348520  39.4659070  33.1594330  36.0704660  37.2783930  22.3282480
  36.9195190  37.7154080  22.2622670  35.7035930  37.5904190  23.1554540
  34.9696080  43.5316290  20.8018010  35.7359350  43.4197650  21.3643440
  35.0470770  42.8354260  20.1494780  33.6642840  40.9641360  21.4850900
  33.7446430  40.0168870  21.5968300  34.5562590  41.2948240  21.5911560
  31.1913640  42.7856280  36.7207070  31.6952660  42.2063560  37.2923300
  30.4521060  43.0696510  37.2583440  38.2451580  44.1927270  36.2542590
  37.4797250  44.7612270  36.1697260  38.4267540  43.9003480  35.3610820
  37.0015110  43.5281420  22.7760650  37.4231530  43.3621290  23.6192040
  37.1265950  42.7181650  22.2815790  35.1642530  39.5077970  35.5831630
  34.6338990  39.0168920  34.9554970  35.8330600  39.9362170  35.0489560
  39.5142750  42.5519030  20.0237750  40.0348410  41.8368050  19.6578900
  40.1611150  43.1904900  20.3238260  35.6514830  36.4740340  35.6628920
  35.5571700  35.8561090  34.9379790  35.0712220  37.2006630  35.4358830
  38.4176270  35.0313580  32.6956310  37.9693570  35.0537840  31.8501860
  37.7841470  34.6332600  33.2926610  38.8235820  43.9267910  33.3168750
  39.2423930  44.7700640  33.1444990  37.9044450  44.0639950  33.0875530
  35.8974010  39.6014650  19.7218810  35.6963070  38.7382010  20.0832150
  35.7266060  39.5148010  18.7840410  37.9268490  38.2005440  35.9582410
  38.5168180  37.8921290  36.6460230  37.1088730  37.7285190  36.1142310
  34.6956810  36.7015270  19.7096690  34.9982710  36.7082700  18.8015840
  35.4351400  36.3513130  20.2064350  37.9141740  35.6449890  20.6952890
  37.5663740  34.9673880  20.1155340  38.1154510  35.1839400  21.5096280
  31.2547380  42.1737540  27.0917260  30.5996220  41.9049180  26.4476960
  32.0925330  42.0642020  26.6419240  32.2923310  42.5590110  31.6320600
  32.6596350  42.4717510  32.5116620  31.7234130  41.7956660  31.5327460
  31.8439310  39.4699200  35.5379020  30.9495360  39.4365960  35.8772730
  32.3836860  39.6685990  36.3030270  30.4685460  39.3836470  23.0342590
  29.5649540  39.6466670  22.8594250  30.9526080  39.6547640  22.2542550
  33.0112670  38.4402010  20.9436970  33.7204370  38.0185230  20.4584250
  32.2952610  38.5077240  20.3120320  32.6586830  34.4941340  19.9839620
  33.3814960  35.0350280  20.3020840  32.9311350  34.2204760  19.1081160
  32.3479020  33.7447530  29.8862240  32.9955210  33.1944910  29.4457400
  32.7680860  33.9990680  30.7078050  32.1011020  33.9003200  32.6287560
  31.7525840  34.3567020  33.3945740  31.7698720  33.0060330  32.7109990
  39.6135840  35.0915080  36.1506980  39.5524730  35.6836910  36.9002390
  40.5536220  34.9841040  36.0057240  32.7731660  33.4279400  35.9038330
  33.3214650  33.2467450  35.1404440  32.8386970  32.6373510  36.4394640
  32.0833670  34.5334600  23.5775190  32.8413030  34.6463480  23.0039220
  31.6210840  35.3703800  23.5318620  38.6247480  36.6473870  26.5677500
  37.8121990  36.2730760  26.2273380  39.1289120  35.8918950  26.8698690
  34.4558820  35.0598650  22.1177160  34.9851580  34.2728450  21.9885110
  35.0887140  35.7389840  22.3512690  36.6496660  34.7973790  25.1722550
  36.0199400  34.0961100  25.3392680  36.1101800  35.5577920  24.9555710
  34.4309700  43.6002650  11.3075280  33.5994580  43.3451360  11.7071790
  35.0390680  43.6713420  12.0433200  32.8401650  38.5604540   5.0917670
  31.9518350  38.9020510   4.9897550  33.1242840  38.3604860   4.1998500
  30.8034660  41.1610190  10.9757370  31.3750770  40.3932390  10.9761010
  30.8036200  41.4598950  10.0663980  32.0459530  36.5694550  12.7626300
  31.8662370  35.6720300  13.0429060  31.6439610  37.1166420  13.4373250
  35.0163040  37.1436040   6.1256050  35.1229790  38.0439770   6.4324810
  34.1055400  37.0954010   5.8350700  32.6646200  39.0655050  11.3708640
  33.3456310  39.3293420  11.9896040  32.3494250  38.2255920  11.7046650
  36.8570770  40.1122410  10.4581230  37.3648990  40.6103380  11.0986250
  37.3884010  39.3357610  10.2820590  35.1406870  34.7520970  14.7244650
  35.1425310  35.2693360  13.9190550  34.3111180  34.2751150  14.7014580
  36.3909720  44.3916150  12.9018150  36.0579100  45.0185070  13.5439220
  36.5676400  44.9178030  12.1219820  34.8222200  36.4630930  12.7315100
  35.1639010  37.3072980  12.4368970  33.8838010  36.6114670  12.8480440
  38.5050090  33.9513200   9.0559690  38.8125070  33.3960090   8.3395190
  37.5750790  34.0857660   8.8732680  36.4987490  42.5426770   8.5739540
  36.0944490  41.8304020   8.0785440  36.5850610  42.1980010   9.4627580
  35.2116110  39.3169980  12.3538580  35.7630700  39.4265320  11.5791830
  35.7259620  39.6907580  13.0693810  34.8858840  42.8389340  15.9643920
  34.7466610  43.7112140  16.3331320  34.0040200  42.4962150  15.8191860
  33.1992120  41.4371750   6.0746190  33.0789720  42.1633840   5.4627460
  32.8893010  40.6674660   5.5974100  30.8377490  44.6086890  11.8814830
  30.9157910  44.7435660  10.9370550  31.4519170  43.9002780  12.0742950
  35.6655780  34.7806820   9.4569860  35.2223930  35.5616360   9.1254380
  36.2240770  35.1036710  10.1640800  39.9525590  37.6475340  15.0605180
  39.4904960  37.8558360  15.8725120  39.5503700  36.8334690  14.7575850
  38.7814600  34.4017520   4.3375690  38.1568780  34.3977390   5.0629000
  38.6944720  33.5348480   3.9411660  37.7031680  35.3254150  11.3159460
  38.0004010  36.2316980  11.2351480  38.2517240  34.8372930  10.7019030
  35.4570000  39.9040390   7.1851110  35.2310920  39.6877560   8.0897730
  34.6762530  40.3368850   6.8397080  37.8969210  40.8025970  17.8511380
  37.8012810  39.8620700  17.7011780  38.7401190  41.0241040  17.4559450
  33.0279750  37.2139640  16.0045160  32.6343140  38.0614850  16.2117940
  32.3398150  36.5766010  16.1953800  39.6024800  37.2974610  19.0741900
  38.9123120  37.1046810  19.7087990  40.3457100  37.5809250  19.6066200
  30.3296800  35.1368100  10.0375240  30.0409850  35.7070960  10.7500220
  31.0742560  34.6572550  10.4006470  38.3165160  37.8127250  10.3148310
  38.3201220  37.3717200   9.4652850  39.2116280  38.1344580  10.4220130
  34.1667540  37.6953740   9.2742520  33.8267590  38.1728970  10.0309570
  33.4044860  37.2418860   8.9143620  38.3785310  38.8139330   3.3055070
  38.4998130  38.7725810   4.2540890  37.9933820  39.6763480   3.1501800
  37.3906810  41.1240470   2.7038370  36.8223710  40.6758720   2.0774280
  38.0995810  41.4833250   2.1703520  38.6173130  41.8729030  12.0613720
  38.9843260  41.3987600  12.8075060  38.4278190  42.7470600  12.4022060
  31.4813620  36.6172720   8.1907190  31.1960540  36.2528390   9.0285810
  31.4192480  35.8853180   7.5770330  36.4072500  40.9137670  14.3797930
  36.1029570  41.7929650  14.6048290  37.3618960  40.9737460  14.4155370
  34.9354290  45.1198660   4.9764780  34.1616550  44.5796280   4.8163500
  35.6648920  44.6005270   4.6382540  34.9791690  44.7879040   8.6143590
  35.4970360  43.9847300   8.5600480  34.5275710  44.7258180   9.4560420
  32.4636230  41.7540410  15.5269290  32.1051170  42.4194260  16.1142630
  32.1690790  40.9223960  15.8981910  35.6649350  42.2124650  18.4108840
  35.3649490  42.3581830  17.5136660  36.4360590  41.6529940  18.3182230
  30.9744280  41.7531670   2.1503890  31.8439130  42.0356470   2.4339810
  30.4834600  42.5667540   2.0352700  38.1379090  43.1404880   6.2712170
  38.5941870  43.9510130   6.4972360  37.7867300  42.8228020   7.1030660
  34.0390870  33.4842530   6.7434690  33.9105500  33.4760430   7.6919610
  33.2152890  33.8225620   6.3925700  31.0384800  35.2433650  16.2041390
  30.3243320  35.4430570  16.8094000  31.4579840  34.4673220  16.5756190
  32.9590790  43.5705140   4.2785950  32.3518740  44.3104040   4.2881250
  33.4340140  43.6604500   3.4524150  37.8669640  38.9698850   6.1788280
  37.1585790  39.4385190   6.6201890  38.1514120  38.3120860   6.8133470
  39.4925570  40.3895550  14.1780810  39.9910820  40.8641370  14.8432660
  39.6348520  39.4659070  14.3850840  36.0704660  37.2783930   3.5538990
  36.9195190  37.7154080   3.4879180  35.7035930  37.5904190   4.3811050
  33.6642840  40.9641360   2.7107410  33.7446430  40.0168870   2.8224810
  34.5562590  41.2948240   2.8168070  31.1913640  42.7856280  17.9463580
  31.6952660  42.2063560  18.5179810  30.4521060  43.0696510  18.4839950
  38.2451580  44.1927270  17.4799100  37.4797250  44.7612270  17.3953770
  38.4267540  43.9003480  16.5867330  33.2236720  40.9285870  18.8413650
  33.2642060  40.6299740  19.7498880  34.0782220  41.3293480  18.6821170
  37.0015110  43.5281420   4.0017160  37.4231530  43.3621290   4.8448550
  37.1265950  42.7181650   3.5072300  35.1642530  39.5077970  16.8088140
  34.6338990  39.0168920  16.1811480  35.8330600  39.9362170  16.2746070
  35.6514830  36.4740340  16.8885430  35.5571700  35.8561090  16.1636300
  35.0712220  37.2006630  16.6615340  38.4176270  35.0313580  13.9212820
  37.9693570  35.0537840  13.0758370  37.7841470  34.6332600  14.5183120
  38.8235820  43.9267910  14.5425260  39.2423930  44.7700640  14.3701500
  37.9044450  44.0639950  14.3132040  37.9268490  38.2005440  17.1838920
  38.5168180  37.8921290  17.8716740  37.1088730  37.7285190  17.3398820
  31.2547380  42.1737540   8.3173770  30.5996220  41.9049180   7.6733470
  32.0925330  42.0642020   7.8675750  32.2923310  42.5590110  12.8577110
  32.6596350  42.4717510  13.7373130  31.7234130  41.7956660  12.7583970
  31.8439310  39.4699200  16.7635530  30.9495360  39.4365960  17.1029240
  32.3836860  39.6685990  17.5286780  30.4685460  39.3836470   4.2599100
  29.5649540  39.6466670   4.0850760  30.9526080  39.6547640   3.4799060
  32.3479020  33.7447530  11.1118750  32.9955210  33.1944910  10.6713910
  32.7680860  33.9990680  11.9334560  32.1011020  33.9003200  13.8544070
  31.7525840  34.3567020  14.6202250  31.7698720  33.0060330  13.9366500
  39.6135840  35.0915080  17.3763490  39.5524730  35.6836910  18.1258900
  40.5536220  34.9841040  17.2313750  32.7731660  33.4279400  17.1294840
  33.3214650  33.2467450  16.3660950  32.8386970  32.6373510  17.6651150
  32.0833670  34.5334600   4.8031700  32.8413030  34.6463480   4.2295730
  31.6210840  35.3703800   4.7575130  38.6247480  36.6473870   7.7934010
  37.8121990  36.2730760   7.4529890  39.1289120  35.8918950   8.0955200
  34.4558820  35.0598650   3.3433670  34.9851580  34.2728450   3.2141620
  35.0887140  35.7389840   3.5769200  36.6496660  34.7973790   6.3979060
  36.0199400  34.0961100   6.5649190  36.1101800  35.5577920   6.1812220
  36.7752220  34.0757770  18.8331550  36.4936490  34.5791370  18.0692370
  37.1571920  33.2779520  18.4673680  34.4309700  24.8259160  30.0818770
  33.5994580  24.5707870  30.4815280  35.0390680  24.8969930  30.8176690
  34.4110960  28.8599250  30.2776790  34.7139000  27.9696990  30.0987010
  35.1554550  29.4169470  30.0499040  32.8401650  19.7861050  23.8661160
  31.9518350  20.1277020  23.7641040  33.1242840  19.5861370  22.9741990
  30.8034660  22.3866700  29.7500860  31.3750770  21.6188900  29.7504500
  30.8036200  22.6855460  28.8407470  32.0459530  17.7951060  31.5369790
  31.8662370  16.8976810  31.8172550  31.6439610  18.3422930  32.2116740
  35.0163040  18.3692550  24.8999540  35.1229790  19.2696280  25.2068300
  34.1055400  18.3210520  24.6094190  32.6646200  20.2911560  30.1452130
  33.3456310  20.5549930  30.7639530  32.3494250  19.4512430  30.4790140
  36.8570770  21.3378920  29.2324720  37.3648990  21.8359890  29.8729740
  37.3884010  20.5614120  29.0564080  35.1406870  15.9777480  33.4988140
  35.1425310  16.4949870  32.6934040  34.3111180  15.5007660  33.4758070
  36.3909720  25.6172660  31.6761640  36.0579100  26.2441580  32.3182710
  36.5676400  26.1434540  30.8963310  34.8222200  17.6887440  31.5058590
  35.1639010  18.5329490  31.2112460  33.8838010  17.8371180  31.6223930
  35.6028820  27.5853460  33.4910820  36.2202820  28.2604540  33.2095270
  34.7421940  27.9941440  33.3998320  30.8961160  26.7753320  22.3717670
  30.5189140  27.2640420  21.6402570  31.1534230  27.4478600  23.0024200
  38.5050090  15.1769710  27.8303180  38.8125070  14.6216600  27.1138680
  37.5750790  15.3114170  27.6476170  36.4987490  23.7683280  27.3483030
  36.0944490  23.0560530  26.8528930  36.5850610  23.4236520  28.2371070
  36.9669190  27.4550840  29.5122240  36.6697480  26.8496310  28.8330020
  37.9169010  27.4928150  29.4011600  35.2116110  20.5426490  31.1282070
  35.7630700  20.6521830  30.3535320  35.7259620  20.9164090  31.8437300
  36.0587620  27.1932530  36.1630040  35.1616150  27.4172500  36.4103440
  36.0840490  27.3167470  35.2141440  34.8858840  24.0645850  34.7387410
  34.7466610  24.9368650  35.1074810  34.0040200  23.7218660  34.5935350
  36.6839190  30.0067550  36.9472560  36.6554620  30.4110500  36.0800990
  36.5204160  29.0777910  36.7844160  33.1992120  22.6628260  24.8489680
  33.0789720  23.3890350  24.2370950  32.8893010  21.8931170  24.3717590
  30.8377490  25.8343400  30.6558320  30.9157910  25.9692170  29.7114040
  31.4519170  25.1259290  30.8486440  32.0825120  27.5343590  27.0664500
  31.6753200  27.6758180  26.2118100  32.9738130  27.2503750  26.8635710
  36.3546780  31.7489370  25.1787170  36.1789260  30.8324910  24.9654970
  35.5002520  32.1076660  25.4184970  30.8937010  26.8757570  33.1952780
  31.0568050  26.4062930  32.3772150  31.3589460  26.3681130  33.8601620
  35.6655780  16.0063330  28.2313350  35.2223930  16.7872870  27.8997870
  36.2240770  16.3293220  28.9384290  39.9525590  18.8731850  33.8348670
  39.4904960  19.0814870  34.6468610  39.5503700  18.0591200  33.5319340
  38.7814600  15.6274030  23.1119180  38.1568780  15.6233900  23.8372490
  38.6944720  14.7604990  22.7155150  37.7031680  16.5510660  30.0902950
  38.0004010  17.4573490  30.0094970  38.2517240  16.0629440  29.4762520
  35.4570000  21.1296900  25.9594600  35.2310920  20.9134070  26.8641220
  34.6762530  21.5625360  25.6140570  37.8969210  22.0282480  36.6254870
  37.8012810  21.0877210  36.4755270  38.7401190  22.2497550  36.2302940
  33.0279750  18.4396150  34.7788650  32.6343140  19.2871360  34.9861430
  32.3398150  17.8022520  34.9697290  30.3296800  16.3624610  28.8118730
  30.0409850  16.9327470  29.5243710  31.0742560  15.8829060  29.1749960
  30.5167030  20.3044730  20.0221450  30.4341700  21.2475490  20.1636440
  30.1650090  20.1619640  19.1433800  38.3165160  19.0383760  29.0891800
  38.3201220  18.5973710  28.2396340  39.2116280  19.3601090  29.1963620
  34.1667540  18.9210250  28.0486010  33.8267590  19.3985480  28.8053060
  33.4044860  18.4675370  27.6887110  38.3785310  20.0395840  22.0798560
  38.4998130  19.9982320  23.0284380  37.9933820  20.9019990  21.9245290
  37.3906810  22.3496980  21.4781860  36.8223710  21.9015230  20.8517770
  38.0995810  22.7089760  20.9447010  32.4675990  26.2509000  35.3548590
  32.0830780  25.6102670  35.9531550  32.7788180  26.9545120  35.9243320
  38.6173130  23.0985540  30.8357210  38.9843260  22.6244110  31.5818550
  38.4278190  23.9727110  31.1765550  31.4813620  17.8429230  26.9650680
  31.1960540  17.4784900  27.8029300  31.4192480  17.1109690  26.3513820
  36.4072500  22.1394180  33.1541420  36.1029570  23.0186160  33.3791780
  37.3618960  22.1993970  33.1898860  34.9354290  26.3455170  23.7508270
  34.1616550  25.8052790  23.5906990  35.6648920  25.8261780  23.4126030
  34.9791690  26.0135550  27.3887080  35.4970360  25.2103810  27.3343970
  34.5275710  25.9514690  28.2303910  39.8661190  27.2801830  22.6614380
  40.2076890  28.0244060  22.1657700  39.0373900  27.5932950  23.0239210
  32.4636230  22.9796920  34.3012780  32.1051170  23.6450770  34.8886120
  32.1690790  22.1480470  34.6725400  35.6649350  23.4381160  37.1852330
  35.3649490  23.5838340  36.2880150  36.4360590  22.8786450  37.0925720
  38.8351880  27.3615360  25.4330300  39.5223010  27.9084570  25.8137890
  38.0484300  27.9056090  25.4679910  30.9744280  22.9788180  20.9247380
  31.8439130  23.2612980  21.2083300  30.4834600  23.7924050  20.8096190
  38.1379090  24.3661390  25.0455660  38.5941870  25.1766640  25.2715850
  37.7867300  24.0484530  25.8774150  34.0390870  14.7099040  25.5178180
  33.9105500  14.7016940  26.4663100  33.2152890  15.0482130  25.1669190
  31.3415530  32.1915560  21.4909010  31.7013170  32.7904900  20.8366280
  31.2007870  32.7375450  22.2644040  31.0384800  16.4690160  34.9784880
  30.3243320  16.6687080  35.5837490  31.4579840  15.6929730  35.3499680
  31.3257390  30.4570420  35.9651410  31.4348510  29.5165160  35.8246800
  30.6737950  30.7225170  35.3165140  37.3584150  29.5746760  22.3082680
  37.3494250  30.3076450  21.6927190  36.4382510  29.3278340  22.4009640
  32.9590790  24.7961650  23.0529440  32.3518740  25.5360550  23.0624740
  33.4340140  24.8861010  22.2267640  40.3443750  29.6375000  20.9707870
  40.4455730  29.4338990  20.0409850  39.4445490  29.3833280  21.1755650
  37.8669640  20.1955360  24.9531770  37.1585790  20.6641700  25.3945380
  38.1514120  19.5377370  25.5876960  39.4925570  21.6152060  32.9524300
  39.9910820  22.0897880  33.6176150  39.6348520  20.6915580  33.1594330
  38.9861860  32.1561320  25.6655540  39.2403360  32.1182710  24.7434910
  38.0374340  32.0294650  25.6583790  36.0704660  18.5040440  22.3282480
  36.9195190  18.9410590  22.2622670  35.7035930  18.8160700  23.1554540
  34.9696080  24.7572800  20.8018010  35.7359350  24.6454160  21.3643440
  35.0470770  24.0610770  20.1494780  33.6642840  22.1897870  21.4850900
  33.7446430  21.2425380  21.5968300  34.5562590  22.5204750  21.5911560
  34.4657550  32.3393260  28.5885440  35.2020030  31.7908720  28.8594010
  34.8498470  33.2049270  28.4491430  31.3503030  28.4066830  24.4626950
  30.4242810  28.6487970  24.4532360  31.8159460  29.2341090  24.3411700
  37.5759860  31.5123570  20.4111010  38.3688470  31.8012400  19.9592800
  37.0564210  31.0815740  19.7323490  31.1913640  24.0112790  36.7207070
  31.6952660  23.4320070  37.2923300  30.4521060  24.2953020  37.2583440
  38.0937260  26.7326980  20.2753360  37.9887900  26.1179330  21.0014740
  37.9261480  26.2092870  19.4916370  38.2451580  25.4183780  36.2542590
  37.4797250  25.9868780  36.1697260  38.4267540  25.1259990  35.3610820
  37.0015110  24.7537930  22.7760650  37.4231530  24.5877800  23.6192040
  37.1265950  23.9438160  22.2815790  35.1642530  20.7334480  35.5831630
  34.6338990  20.2425430  34.9554970  35.8330600  21.1618680  35.0489560
  39.5142750  23.7775540  20.0237750  40.0348410  23.0624560  19.6578900
  40.1611150  24.4161410  20.3238260  35.6514830  17.6996850  35.6628920
  35.5571700  17.0817600  34.9379790  35.0712220  18.4263140  35.4358830
  38.4176270  16.2570090  32.6956310  37.9693570  16.2794350  31.8501860
  37.7841470  15.8589110  33.2926610  38.8235820  25.1524420  33.3168750
  39.2423930  25.9957150  33.1444990  37.9044450  25.2896460  33.0875530
  35.8974010  20.8271160  19.7218810  35.6963070  19.9638520  20.0832150
  35.7266060  20.7404520  18.7840410  36.6743240  31.4577430  34.4326480
  36.1364330  32.1823490  34.1135180  36.9277200  30.9807770  33.6423820
  37.9268490  19.4261950  35.9582410  38.5168180  19.1177800  36.6460230
  37.1088730  18.9541700  36.1142310  34.6956810  17.9271780  19.7096690
  34.9982710  17.9339210  18.8015840  35.4351400  17.5769640  20.2064350
  39.5305450  32.6928640  34.6913130  39.4564150  33.5963780  34.9985500
  38.6284290  32.3740540  34.6635200  37.9141740  16.8706400  20.6952890
  37.5663740  16.1930390  20.1155340  38.1154510  16.4095910  21.5096280
  33.7186940  27.2314200  20.5426490  34.1561810  27.7743870  21.1984070
  34.2034670  26.4061150  20.5522830  30.9332740  30.0203230  27.9946750
  31.2635750  29.1524290  27.7625390  31.3623740  30.2261750  28.8251710
  35.5294660  28.3512240  25.6548720  35.2290200  28.2277210  26.5552630
  35.4232150  27.4920830  25.2464450  31.4222950  30.8873820  30.7328380
  30.9853940  31.0674620  31.5652530  31.9900630  31.6448440  30.5910100
  31.2547380  23.3994050  27.0917260  30.5996220  23.1305690  26.4476960
  32.0925330  23.2898530  26.6419240  32.2923310  23.7846620  31.6320600
  32.6596350  23.6974020  32.5116620  31.7234130  23.0213170  31.5327460
  31.8439310  20.6955710  35.5379020  30.9495360  20.6622470  35.8772730
  32.3836860  20.8942500  36.3030270  30.4685460  20.6092980  23.0342590
  29.5649540  20.8723180  22.8594250  30.9526080  20.8804150  22.2542550
  33.0112670  19.6658520  20.9436970  33.7204370  19.2441740  20.4584250
  32.2952610  19.7333750  20.3120320  32.6586830  15.7197850  19.9839620
  33.3814960  16.2606790  20.3020840  32.9311350  15.4461270  19.1081160
  32.3479020  14.9704040  29.8862240  32.9955210  14.4201420  29.4457400
  32.7680860  15.2247190  30.7078050  32.1011020  15.1259710  32.6287560
  31.7525840  15.5823530  33.3945740  31.7698720  14.2316840  32.7109990
  37.4081420  29.8538900  32.3950470  37.1672780  30.1213460  31.5080990
  38.3484060  30.0244630  32.4501330  39.6135840  16.3171590  36.1506980
  39.5524730  16.9093420  36.9002390  40.5536220  16.2097550  36.0057240
  32.7731660  14.6535910  35.9038330  33.3214650  14.4723960  35.1404440
  32.8386970  13.8630020  36.4394640  33.5463420  31.2441560  33.9138530
  32.9523740  31.1126260  34.6528570  33.5387260  30.4079700  33.4480630
  33.1775650  28.6099940  32.8646570  32.4509710  27.9905230  32.7972520
  33.2384800  29.0040550  31.9944650  36.7820750  30.8244940  29.6495980
  37.2985770  30.2132300  29.1244240  37.4318130  31.3273720  30.1406990
  39.5216250  31.7153430  30.4764960  39.8094060  31.4607730  29.5997970
  40.0339470  31.1630790  31.0670530  31.4605650  31.9274330  26.0743330
  31.2927690  31.2945010  26.7725220  30.5940160  32.1333730  25.7237520
  32.0833670  15.7591110  23.5775190  32.8413030  15.8719990  23.0039220
  31.6210840  16.5960310  23.5318620  38.6247480  17.8730380  26.5677500
  37.8121990  17.4987270  26.2273380  39.1289120  17.1175460  26.8698690
  33.0668350  30.6207560  23.5193470  32.5415970  31.0015590  22.8155430
  32.9912930  31.2458330  24.2403180  34.4558820  16.2855160  22.1177160
  34.9851580  15.4984960  21.9885110  35.0887140  16.9646350  22.3512690
  36.6496660  16.0230300  25.1722550  36.0199400  15.3217610  25.3392680
  36.1101800  16.7834430  24.9555710  35.6661320  32.5689940  22.3942720
  36.3980140  32.2849220  21.8466610  35.9254990  32.3303220  23.2842100
  34.8276110  28.6854670  22.3989050  34.1984990  29.1539770  22.9474880
  34.9423940  27.8403890  22.8335240  34.4309700  24.8259160  11.3075280
  33.5994580  24.5707870  11.7071790  35.0390680  24.8969930  12.0433200
  34.4110960  28.8599250  11.5033300  34.7139000  27.9696990  11.3243520
  35.1554550  29.4169470  11.2755550  32.8401650  19.7861050   5.0917670
  31.9518350  20.1277020   4.9897550  33.1242840  19.5861370   4.1998500
  30.8034660  22.3866700  10.9757370  31.3750770  21.6188900  10.9761010
  30.8036200  22.6855460  10.0663980  32.0459530  17.7951060  12.7626300
  31.8662370  16.8976810  13.0429060  31.6439610  18.3422930  13.4373250
  35.0163040  18.3692550   6.1256050  35.1229790  19.2696280   6.4324810
  34.1055400  18.3210520   5.8350700  32.6646200  20.2911560  11.3708640
  33.3456310  20.5549930  11.9896040  32.3494250  19.4512430  11.7046650
  36.8570770  21.3378920  10.4581230  37.3648990  21.8359890  11.0986250
  37.3884010  20.5614120  10.2820590  35.1406870  15.9777480  14.7244650
  35.1425310  16.4949870  13.9190550  34.3111180  15.5007660  14.7014580
  36.3909720  25.6172660  12.9018150  36.0579100  26.2441580  13.5439220
  36.5676400  26.1434540  12.1219820  34.8222200  17.6887440  12.7315100
  35.1639010  18.5329490  12.4368970  33.8838010  17.8371180  12.8480440
  35.6028820  27.5853460  14.7167330  36.2202820  28.2604540  14.4351780
  34.7421940  27.9941440  14.6254830  30.8961160  26.7753320   3.5974180
  30.5189140  27.2640420   2.8659080  31.1534230  27.4478600   4.2280710
  38.5050090  15.1769710   9.0559690  38.8125070  14.6216600   8.3395190
  37.5750790  15.3114170   8.8732680  36.4987490  23.7683280   8.5739540
  36.0944490  23.0560530   8.0785440  36.5850610  23.4236520   9.4627580
  36.9669190  27.4550840  10.7378750  36.6697480  26.8496310  10.0586530
  37.9169010  27.4928150  10.6268110  35.2116110  20.5426490  12.3538580
  35.7630700  20.6521830  11.5791830  35.7259620  20.9164090  13.0693810
  36.0587620  27.1932530  17.3886550  35.1616150  27.4172500  17.6359950
  36.0840490  27.3167470  16.4397950  34.8858840  24.0645850  15.9643920
  34.7466610  24.9368650  16.3331320  34.0040200  23.7218660  15.8191860
  36.6839190  30.0067550  18.1729070  36.6554620  30.4110500  17.3057500
  36.5204160  29.0777910  18.0100670  33.1992120  22.6628260   6.0746190
  33.0789720  23.3890350   5.4627460  32.8893010  21.8931170   5.5974100
  30.8377490  25.8343400  11.8814830  30.9157910  25.9692170  10.9370550
  31.4519170  25.1259290  12.0742950  32.0825120  27.5343590   8.2921010
  31.6753200  27.6758180   7.4374610  32.9738130  27.2503750   8.0892220
  36.3546780  31.7489370   6.4043680  36.1789260  30.8324910   6.1911480
  35.5002520  32.1076660   6.6441480  30.8937010  26.8757570  14.4209290
  31.0568050  26.4062930  13.6028660  31.3589460  26.3681130  15.0858130
  35.6655780  16.0063330   9.4569860  35.2223930  16.7872870   9.1254380
  36.2240770  16.3293220  10.1640800  39.9525590  18.8731850  15.0605180
  39.4904960  19.0814870  15.8725120  39.5503700  18.0591200  14.7575850
  38.7814600  15.6274030   4.3375690  38.1568780  15.6233900   5.0629000
  38.6944720  14.7604990   3.9411660  37.7031680  16.5510660  11.3159460
  38.0004010  17.4573490  11.2351480  38.2517240  16.0629440  10.7019030
  35.4570000  21.1296900   7.1851110  35.2310920  20.9134070   8.0897730
  34.6762530  21.5625360   6.8397080  37.8969210  22.0282480  17.8511380
  37.8012810  21.0877210  17.7011780  38.7401190  22.2497550  17.4559450
  33.0279750  18.4396150  16.0045160  32.6343140  19.2871360  16.2117940
  32.3398150  17.8022520  16.1953800  39.6024800  18.5231120  19.0741900
  38.9123120  18.3303320  19.7087990  40.3457100  18.8065760  19.6066200
  30.3296800  16.3624610  10.0375240  30.0409850  16.9327470  10.7500220
  31.0742560  15.8829060  10.4006470  38.3165160  19.0383760  10.3148310
  38.3201220  18.5973710   9.4652850  39.2116280  19.3601090  10.4220130
  34.1667540  18.9210250   9.2742520  33.8267590  19.3985480  10.0309570
  33.4044860  18.4675370   8.9143620  38.3785310  20.0395840   3.3055070
  38.4998130  19.9982320   4.2540890  37.9933820  20.9019990   3.1501800
  37.3906810  22.3496980   2.7038370  36.8223710  21.9015230   2.0774280
  38.0995810  22.7089760   2.1703520  32.4675990  26.2509000  16.5805100
  32.0830780  25.6102670  17.1788060  32.7788180  26.9545120  17.1499830
  38.6173130  23.0985540  12.0613720  38.9843260  22.6244110  12.8075060
  38.4278190  23.9727110  12.4022060  31.4813620  17.8429230   8.1907190
  31.1960540  17.4784900   9.0285810  31.4192480  17.1109690   7.5770330
  36.4072500  22.1394180  14.3797930  36.1029570  23.0186160  14.6048290
  37.3618960  22.1993970  14.4155370  34.9354290  26.3455170   4.9764780
  34.1616550  25.8052790   4.8163500  35.6648920  25.8261780   4.6382540
  34.9791690  26.0135550   8.6143590  35.4970360  25.2103810   8.5600480
  34.5275710  25.9514690   9.4560420  39.8661190  27.2801830   3.8870890
  40.2076890  28.0244060   3.3914210  39.0373900  27.5932950   4.2495720
  32.4636230  22.9796920  15.5269290  32.1051170  23.6450770  16.1142630
  32.1690790  22.1480470  15.8981910  35.6649350  23.4381160  18.4108840
  35.3649490  23.5838340  17.5136660  36.4360590  22.8786450  18.3182230
  38.8351880  27.3615360   6.6586810  39.5223010  27.9084570   7.0394400
  38.0484300  27.9056090   6.6936420  30.9744280  22.9788180   2.1503890
  31.8439130  23.2612980   2.4339810  30.4834600  23.7924050   2.0352700
  38.1379090  24.3661390   6.2712170  38.5941870  25.1766640   6.4972360
  37.7867300  24.0484530   7.1030660  34.0390870  14.7099040   6.7434690
  33.9105500  14.7016940   7.6919610  33.2152890  15.0482130   6.3925700
  31.3415530  32.1915560   2.7165520  31.7013170  32.7904900   2.0622790
  31.2007870  32.7375450   3.4900550  31.0384800  16.4690160  16.2041390
  30.3243320  16.6687080  16.8094000  31.4579840  15.6929730  16.5756190
  39.3169980  28.7286310  18.5906040  38.9966850  28.0095550  19.1351730
  38.6428340  29.4041380  18.6642100  37.3584150  29.5746760   3.5339190
  37.3494250  30.3076450   2.9183700  36.4382510  29.3278340   3.6266150
  32.9590790  24.7961650   4.2785950  32.3518740  25.5360550   4.2881250
  33.4340140  24.8861010   3.4524150  37.8669640  20.1955360   6.1788280
  37.1585790  20.6641700   6.6201890  38.1514120  19.5377370   6.8133470
  39.4925570  21.6152060  14.1780810  39.9910820  22.0897880  14.8432660
  39.6348520  20.6915580  14.3850840  38.9861860  32.1561320   6.8912050
  39.2403360  32.1182710   5.9691420  38.0374340  32.0294650   6.8840300
  36.0704660  18.5040440   3.5538990  36.9195190  18.9410590   3.4879180
  35.7035930  18.8160700   4.3811050  33.6642840  22.1897870   2.7107410
  33.7446430  21.2425380   2.8224810  34.5562590  22.5204750   2.8168070
  34.4657550  32.3393260   9.8141950  35.2020030  31.7908720  10.0850520
  34.8498470  33.2049270   9.6747940  31.3503030  28.4066830   5.6883460
  30.4242810  28.6487970   5.6788870  31.8159460  29.2341090   5.5668210
  33.4715830  31.5239330  19.0027530  34.2728560  31.8451380  19.4162930
  32.9567650  31.1634910  19.7247440  31.1913640  24.0112790  17.9463580
  31.6952660  23.4320070  18.5179810  30.4521060  24.2953020  18.4839950
  38.2451580  25.4183780  17.4799100  37.4797250  25.9868780  17.3953770
  38.4267540  25.1259990  16.5867330  33.2236720  22.1542380  18.8413650
  33.2642060  21.8556250  19.7498880  34.0782220  22.5549990  18.6821170
  37.0015110  24.7537930   4.0017160  37.4231530  24.5877800   4.8448550
  37.1265950  23.9438160   3.5072300  35.1642530  20.7334480  16.8088140
  34.6338990  20.2425430  16.1811480  35.8330600  21.1618680  16.2746070
  35.6514830  17.6996850  16.8885430  35.5571700  17.0817600  16.1636300
  35.0712220  18.4263140  16.6615340  38.4176270  16.2570090  13.9212820
  37.9693570  16.2794350  13.0758370  37.7841470  15.8589110  14.5183120
  38.8235820  25.1524420  14.5425260  39.2423930  25.9957150  14.3701500
  37.9044450  25.2896460  14.3132040  36.6743240  31.4577430  15.6582990
  36.1364330  32.1823490  15.3391690  36.9277200  30.9807770  14.8680330
  37.9268490  19.4261950  17.1838920  38.5168180  19.1177800  17.8716740
  37.1088730  18.9541700  17.3398820  39.5305450  32.6928640  15.9169640
  39.4564150  33.5963780  16.2242010  38.6284290  32.3740540  15.8891710
  33.7186940  27.2314200   1.7683000  34.1561810  27.7743870   2.4240580
  34.2034670  26.4061150   1.7779340  30.9332740  30.0203230   9.2203260
  31.2635750  29.1524290   8.9881900  31.3623740  30.2261750  10.0508220
  35.5294660  28.3512240   6.8805230  35.2290200  28.2277210   7.7809140
  35.4232150  27.4920830   6.4720960  31.4222950  30.8873820  11.9584890
  30.9853940  31.0674620  12.7909040  31.9900630  31.6448440  11.8166610
  31.2547380  23.3994050   8.3173770  30.5996220  23.1305690   7.6733470
  32.0925330  23.2898530   7.8675750  32.2923310  23.7846620  12.8577110
  32.6596350  23.6974020  13.7373130  31.7234130  23.0213170  12.7583970
  31.8439310  20.6955710  16.7635530  30.9495360  20.6622470  17.1029240
  32.3836860  20.8942500  17.5286780  30.4685460  20.6092980   4.2599100
  29.5649540  20.8723180   4.0850760  30.9526080  20.8804150   3.4799060
  32.3479020  14.9704040  11.1118750  32.9955210  14.4201420  10.6713910
  32.7680860  15.2247190  11.9334560  32.1011020  15.1259710  13.8544070
  31.7525840  15.5823530  14.6202250  31.7698720  14.2316840  13.9366500
  33.7075390  28.2979310  18.0197260  33.6645020  27.9272220  18.9011720
  33.8386400  29.2356880  18.1599080  37.4081420  29.8538900  13.6206980
  37.1672780  30.1213460  12.7337500  38.3484060  30.0244630  13.6757840
  39.6135840  16.3171590  17.3763490  39.5524730  16.9093420  18.1258900
  40.5536220  16.2097550  17.2313750  32.7731660  14.6535910  17.1294840
  33.3214650  14.4723960  16.3660950  32.8386970  13.8630020  17.6651150
  33.5463420  31.2441560  15.1395040  32.9523740  31.1126260  15.8785080
  33.5387260  30.4079700  14.6737140  33.1775650  28.6099940  14.0903080
  32.4509710  27.9905230  14.0229030  33.2384800  29.0040550  13.2201160
  36.7820750  30.8244940  10.8752490  37.2985770  30.2132300  10.3500750
  37.4318130  31.3273720  11.3663500  39.5216250  31.7153430  11.7021470
  39.8094060  31.4607730  10.8254480  40.0339470  31.1630790  12.2927040
  31.4605650  31.9274330   7.2999840  31.2927690  31.2945010   7.9981730
  30.5940160  32.1333730   6.9494030  32.0833670  15.7591110   4.8031700
  32.8413030  15.8719990   4.2295730  31.6210840  16.5960310   4.7575130
  38.6247480  17.8730380   7.7934010  37.8121990  17.4987270   7.4529890
  39.1289120  17.1175460   8.0955200  33.0668350  30.6207560   4.7449980
  32.5415970  31.0015590   4.0411940  32.9912930  31.2458330   5.4659690
  34.4558820  16.2855160   3.3433670  34.9851580  15.4984960   3.2141620
  35.0887140  16.9646350   3.5769200  36.6496660  16.0230300   6.3979060
  36.0199400  15.3217610   6.5649190  36.1101800  16.7834430   6.1812220
  39.5888610  32.6369530  19.0689670  40.5155920  32.4013800  19.1125630
  39.5739040  33.4641530  18.5875700  36.7752220  15.3014280  18.8331550
  36.4936490  15.8047880  18.0692370  37.1571920  14.5036030  18.4673680
  35.6661320  32.5689940   3.6199230  36.3980140  32.2849220   3.0723120
  35.9254990  32.3303220   4.5098610  34.8276110  28.6854670   3.6245560
  34.1984990  29.1539770   4.1731390  34.9423940  27.8403890   4.0591750
  34.4309700   6.0515670  30.0818770  33.5994580   5.7964380  30.4815280
  35.0390680   6.1226440  30.8176690  34.4110960  10.0855760  30.2776790
  34.7139000   9.1953500  30.0987010  35.1554550  10.6425980  30.0499040
  30.8034660   3.6123210  29.7500860  31.3750770   2.8445410  29.7504500
  30.8036200   3.9111970  28.8407470  36.8570770   2.5635430  29.2324720
  37.3648990   3.0616400  29.8729740  37.3884010   1.7870630  29.0564080
  36.3909720   6.8429170  31.6761640  36.0579100   7.4698090  32.3182710
  36.5676400   7.3691050  30.8963310  35.6028820   8.8109970  33.4910820
  36.2202820   9.4861050  33.2095270  34.7421940   9.2197950  33.3998320
  30.8961160   8.0009830  22.3717670  30.5189140   8.4896930  21.6402570
  31.1534230   8.6735110  23.0024200  36.4987490   4.9939790  27.3483030
  36.0944490   4.2817040  26.8528930  36.5850610   4.6493030  28.2371070
  36.9669190   8.6807350  29.5122240  36.6697480   8.0752820  28.8330020
  37.9169010   8.7184660  29.4011600  35.2116110   1.7683000  31.1282070
  35.7630700   1.8778340  30.3535320  35.7259620   2.1420600  31.8437300
  36.0587620   8.4189040  36.1630040  35.1616150   8.6429010  36.4103440
  36.0840490   8.5423980  35.2141440  34.8858840   5.2902360  34.7387410
  34.7466610   6.1625160  35.1074810  34.0040200   4.9475170  34.5935350
  36.6839190  11.2324060  36.9472560  36.6554620  11.6367010  36.0800990
  36.5204160  10.3034420  36.7844160  33.1992120   3.8884770  24.8489680
  33.0789720   4.6146860  24.2370950  32.8893010   3.1187680  24.3717590
  30.8377490   7.0599910  30.6558320  30.9157910   7.1948680  29.7114040
  31.4519170   6.3515800  30.8486440  32.0825120   8.7600100  27.0664500
  31.6753200   8.9014690  26.2118100  32.9738130   8.4760260  26.8635710
  36.3546780  12.9745880  25.1787170  36.1789260  12.0581420  24.9654970
  35.5002520  13.3333170  25.4184970  30.8937010   8.1014080  33.1952780
  31.0568050   7.6319440  32.3772150  31.3589460   7.5937640  33.8601620
  35.4570000   2.3553410  25.9594600  35.2310920   2.1390580  26.8641220
  34.6762530   2.7881870  25.6140570  37.8969210   3.2538990  36.6254870
  37.8012810   2.3133720  36.4755270  38.7401190   3.4754060  36.2302940
  37.3906810   3.5753490  21.4781860  36.8223710   3.1271740  20.8517770
  38.0995810   3.9346270  20.9447010  32.4675990   7.4765510  35.3548590
  32.0830780   6.8359180  35.9531550  32.7788180   8.1801630  35.9243320
  38.6173130   4.3242050  30.8357210  38.9843260   3.8500620  31.5818550
  38.4278190   5.1983620  31.1765550  36.4072500   3.3650690  33.1541420
  36.1029570   4.2442670  33.3791780  37.3618960   3.4250480  33.1898860
  34.9354290   7.5711680  23.7508270  34.1616550   7.0309300  23.5906990
  35.6648920   7.0518290  23.4126030  34.9791690   7.2392060  27.3887080
  35.4970360   6.4360320  27.3343970  34.5275710   7.1771200  28.2303910
  39.8661190   8.5058340  22.6614380  40.2076890   9.2500570  22.1657700
  39.0373900   8.8189460  23.0239210  32.4636230   4.2053430  34.3012780
  32.1051170   4.8707280  34.8886120  32.1690790   3.3736980  34.6725400
  35.6649350   4.6637670  37.1852330  35.3649490   4.8094850  36.2880150
  36.4360590   4.1042960  37.0925720  38.8351880   8.5871870  25.4330300
  39.5223010   9.1341080  25.8137890  38.0484300   9.1312600  25.4679910
  30.9744280   4.2044690  20.9247380  31.8439130   4.4869490  21.2083300
  30.4834600   5.0180560  20.8096190  38.1379090   5.5917900  25.0455660
  38.5941870   6.4023150  25.2715850  37.7867300   5.2741040  25.8774150
  31.3415530  13.4172070  21.4909010  31.7013170  14.0161410  20.8366280
  31.2007870  13.9631960  22.2644040  31.3257390  11.6826930  35.9651410
  31.4348510  10.7421670  35.8246800  30.6737950  11.9481680  35.3165140
  37.3584150  10.8003270  22.3082680  37.3494250  11.5332960  21.6927190
  36.4382510  10.5534850  22.4009640  32.9590790   6.0218160  23.0529440
  32.3518740   6.7617060  23.0624740  33.4340140   6.1117520  22.2267640
  40.3443750  10.8631510  20.9707870  40.4455730  10.6595500  20.0409850
  39.4445490  10.6089790  21.1755650  39.4925570   2.8408570  32.9524300
  39.9910820   3.3154390  33.6176150  39.6348520   1.9172090  33.1594330
  38.9861860  13.3817830  25.6655540  39.2403360  13.3439220  24.7434910
  38.0374340  13.2551160  25.6583790  34.9696080   5.9829310  20.8018010
  35.7359350   5.8710670  21.3643440  35.0470770   5.2867280  20.1494780
  33.6642840   3.4154380  21.4850900  33.7446430   2.4681890  21.5968300
  34.5562590   3.7461260  21.5911560  34.4657550  13.5649770  28.5885440
  35.2020030  13.0165230  28.8594010  34.8498470  14.4305780  28.4491430
  31.3503030   9.6323340  24.4626950  30.4242810   9.8744480  24.4532360
  31.8159460  10.4597600  24.3411700  37.5759860  12.7380080  20.4111010
  38.3688470  13.0268910  19.9592800  37.0564210  12.3072250  19.7323490
  31.1913640   5.2369300  36.7207070  31.6952660   4.6576580  37.2923300
  30.4521060   5.5209530  37.2583440  38.0937260   7.9583490  20.2753360
  37.9887900   7.3435840  21.0014740  37.9261480   7.4349380  19.4916370
  38.2451580   6.6440290  36.2542590  37.4797250   7.2125290  36.1697260
  38.4267540   6.3516500  35.3610820  37.0015110   5.9794440  22.7760650
  37.4231530   5.8134310  23.6192040  37.1265950   5.1694670  22.2815790
  39.5142750   5.0032050  20.0237750  40.0348410   4.2881070  19.6578900
  40.1611150   5.6417920  20.3238260  38.8235820   6.3780930  33.3168750
  39.2423930   7.2213660  33.1444990  37.9044450   6.5152970  33.0875530
  36.6743240  12.6833940  34.4326480  36.1364330  13.4080000  34.1135180
  36.9277200  12.2064280  33.6423820  39.5305450  13.9185150  34.6913130
  39.4564150  14.8220290  34.9985500  38.6284290  13.5997050  34.6635200
  33.7186940   8.4570710  20.5426490  34.1561810   9.0000380  21.1984070
  34.2034670   7.6317660  20.5522830  30.9332740  11.2459740  27.9946750
  31.2635750  10.3780800  27.7625390  31.3623740  11.4518260  28.8251710
  35.5294660   9.5768750  25.6548720  35.2290200   9.4533720  26.5552630
  35.4232150   8.7177340  25.2464450  31.4222950  12.1130330  30.7328380
  30.9853940  12.2931130  31.5652530  31.9900630  12.8704950  30.5910100
  31.2547380   4.6250560  27.0917260  30.5996220   4.3562200  26.4476960
  32.0925330   4.5155040  26.6419240  32.2923310   5.0103130  31.6320600
  32.6596350   4.9230530  32.5116620  31.7234130   4.2469680  31.5327460
  31.8439310   1.9212220  35.5379020  30.9495360   1.8878980  35.8772730
  32.3836860   2.1199010  36.3030270  30.4685460   1.8349490  23.0342590
  29.5649540   2.0979690  22.8594250  30.9526080   2.1060660  22.2542550
  37.4081420  11.0795410  32.3950470  37.1672780  11.3469970  31.5080990
  38.3484060  11.2501140  32.4501330  33.5463420  12.4698070  33.9138530
  32.9523740  12.3382770  34.6528570  33.5387260  11.6336210  33.4480630
  33.1775650   9.8356450  32.8646570  32.4509710   9.2161740  32.7972520
  33.2384800  10.2297060  31.9944650  36.7820750  12.0501450  29.6495980
  37.2985770  11.4388810  29.1244240  37.4318130  12.5530230  30.1406990
  39.5216250  12.9409940  30.4764960  39.8094060  12.6864240  29.5997970
  40.0339470  12.3887300  31.0670530  31.4605650  13.1530840  26.0743330
  31.2927690  12.5201520  26.7725220  30.5940160  13.3590240  25.7237520
  33.0668350  11.8464070  23.5193470  32.5415970  12.2272100  22.8155430
  32.9912930  12.4714840  24.2403180  35.6661320  13.7946450  22.3942720
  36.3980140  13.5105730  21.8466610  35.9254990  13.5559730  23.2842100
  34.8276110   9.9111180  22.3989050  34.1984990  10.3796280  22.9474880
  34.9423940   9.0660400  22.8335240  34.4309700   6.0515670  11.3075280
  33.5994580   5.7964380  11.7071790  35.0390680   6.1226440  12.0433200
  34.4110960  10.0855760  11.5033300  34.7139000   9.1953500  11.3243520
  35.1554550  10.6425980  11.2755550  30.8034660   3.6123210  10.9757370
  31.3750770   2.8445410  10.9761010  30.8036200   3.9111970  10.0663980
  36.8570770   2.5635430  10.4581230  37.3648990   3.0616400  11.0986250
  37.3884010   1.7870630  10.2820590  36.3909720   6.8429170  12.9018150
  36.0579100   7.4698090  13.5439220  36.5676400   7.3691050  12.1219820
  35.6028820   8.8109970  14.7167330  36.2202820   9.4861050  14.4351780
  34.7421940   9.2197950  14.6254830  30.8961160   8.0009830   3.5974180
  30.5189140   8.4896930   2.8659080  31.1534230   8.6735110   4.2280710
  36.4987490   4.9939790   8.5739540  36.0944490   4.2817040   8.0785440
  36.5850610   4.6493030   9.4627580  36.9669190   8.6807350  10.7378750
  36.6697480   8.0752820  10.0586530  37.9169010   8.7184660  10.6268110
  35.2116110   1.7683000  12.3538580  35.7630700   1.8778340  11.5791830
  35.7259620   2.1420600  13.0693810  36.0587620   8.4189040  17.3886550
  35.1616150   8.6429010  17.6359950  36.0840490   8.5423980  16.4397950
  34.8858840   5.2902360  15.9643920  34.7466610   6.1625160  16.3331320
  34.0040200   4.9475170  15.8191860  36.6839190  11.2324060  18.1729070
  36.6554620  11.6367010  17.3057500  36.5204160  10.3034420  18.0100670
  33.1992120   3.8884770   6.0746190  33.0789720   4.6146860   5.4627460
  32.8893010   3.1187680   5.5974100  30.8377490   7.0599910  11.8814830
  30.9157910   7.1948680  10.9370550  31.4519170   6.3515800  12.0742950
  32.0825120   8.7600100   8.2921010  31.6753200   8.9014690   7.4374610
  32.9738130   8.4760260   8.0892220  36.3546780  12.9745880   6.4043680
  36.1789260  12.0581420   6.1911480  35.5002520  13.3333170   6.6441480
  30.8937010   8.1014080  14.4209290  31.0568050   7.6319440  13.6028660
  31.3589460   7.5937640  15.0858130  35.4570000   2.3553410   7.1851110
  35.2310920   2.1390580   8.0897730  34.6762530   2.7881870   6.8397080
  37.8969210   3.2538990  17.8511380  37.8012810   2.3133720  17.7011780
  38.7401190   3.4754060  17.4559450  37.3906810   3.5753490   2.7038370
  36.8223710   3.1271740   2.0774280  38.0995810   3.9346270   2.1703520
  32.4675990   7.4765510  16.5805100  32.0830780   6.8359180  17.1788060
  32.7788180   8.1801630  17.1499830  38.6173130   4.3242050  12.0613720
  38.9843260   3.8500620  12.8075060  38.4278190   5.1983620  12.4022060
  36.4072500   3.3650690  14.3797930  36.1029570   4.2442670  14.6048290
  37.3618960   3.4250480  14.4155370  34.9354290   7.5711680   4.9764780
  34.1616550   7.0309300   4.8163500  35.6648920   7.0518290   4.6382540
  34.9791690   7.2392060   8.6143590  35.4970360   6.4360320   8.5600480
  34.5275710   7.1771200   9.4560420  39.8661190   8.5058340   3.8870890
  40.2076890   9.2500570   3.3914210  39.0373900   8.8189460   4.2495720
  32.4636230   4.2053430  15.5269290  32.1051170   4.8707280  16.1142630
  32.1690790   3.3736980  15.8981910  35.6649350   4.6637670  18.4108840
  35.3649490   4.8094850  17.5136660  36.4360590   4.1042960  18.3182230
  38.8351880   8.5871870   6.6586810  39.5223010   9.1341080   7.0394400
  38.0484300   9.1312600   6.6936420  30.9744280   4.2044690   2.1503890
  31.8439130   4.4869490   2.4339810  30.4834600   5.0180560   2.0352700
  38.1379090   5.5917900   6.2712170  38.5941870   6.4023150   6.4972360
  37.7867300   5.2741040   7.1030660  31.3415530  13.4172070   2.7165520
  31.7013170  14.0161410   2.0622790  31.2007870  13.9631960   3.4900550
  31.3257390  11.6826930  17.1907920  31.4348510  10.7421670  17.0503310
  30.6737950  11.9481680  16.5421650  39.3169980   9.9542820  18.5906040
  38.9966850   9.2352060  19.1351730  38.6428340  10.6297890  18.6642100
  37.3584150  10.8003270   3.5339190  37.3494250  11.5332960   2.9183700
  36.4382510  10.5534850   3.6266150  32.9590790   6.0218160   4.2785950
  32.3518740   6.7617060   4.2881250  33.4340140   6.1117520   3.4524150
  39.4925570   2.8408570  14.1780810  39.9910820   3.3154390  14.8432660
  39.6348520   1.9172090  14.3850840  38.9861860  13.3817830   6.8912050
  39.2403360  13.3439220   5.9691420  38.0374340  13.2551160   6.8840300
  33.6642840   3.4154380   2.7107410  33.7446430   2.4681890   2.8224810
  34.5562590   3.7461260   2.8168070  34.4657550  13.5649770   9.8141950
  35.2020030  13.0165230  10.0850520  34.8498470  14.4305780   9.6747940
  31.3503030   9.6323340   5.6883460  30.4242810   9.8744480   5.6788870
  31.8159460  10.4597600   5.5668210  33.4715830  12.7495840  19.0027530
  34.2728560  13.0707890  19.4162930  32.9567650  12.3891420  19.7247440
  31.1913640   5.2369300  17.9463580  31.6952660   4.6576580  18.5179810
  30.4521060   5.5209530  18.4839950  38.2451580   6.6440290  17.4799100
  37.4797250   7.2125290  17.3953770  38.4267540   6.3516500  16.5867330
  33.2236720   3.3798890  18.8413650  33.2642060   3.0812760  19.7498880
  34.0782220   3.7806500  18.6821170  37.0015110   5.9794440   4.0017160
  37.4231530   5.8134310   4.8448550  37.1265950   5.1694670   3.5072300
  38.8235820   6.3780930  14.5425260  39.2423930   7.2213660  14.3701500
  37.9044450   6.5152970  14.3132040  36.6743240  12.6833940  15.6582990
  36.1364330  13.4080000  15.3391690  36.9277200  12.2064280  14.8680330
  39.5305450  13.9185150  15.9169640  39.4564150  14.8220290  16.2242010
  38.6284290  13.5997050  15.8891710  33.7186940   8.4570710   1.7683000
  34.1561810   9.0000380   2.4240580  34.2034670   7.6317660   1.7779340
  30.9332740  11.2459740   9.2203260  31.2635750  10.3780800   8.9881900
  31.3623740  11.4518260  10.0508220  35.5294660   9.5768750   6.8805230
  35.2290200   9.4533720   7.7809140  35.4232150   8.7177340   6.4720960
  31.4222950  12.1130330  11.9584890  30.9853940  12.2931130  12.7909040
  31.9900630  12.8704950  11.8166610  31.2547380   4.6250560   8.3173770
  30.5996220   4.3562200   7.6733470  32.0925330   4.5155040   7.8675750
  32.2923310   5.0103130  12.8577110  32.6596350   4.9230530  13.7373130
  31.7234130   4.2469680  12.7583970  31.8439310   1.9212220  16.7635530
  30.9495360   1.8878980  17.1029240  32.3836860   2.1199010  17.5286780
  30.4685460   1.8349490   4.2599100  29.5649540   2.0979690   4.0850760
  30.9526080   2.1060660   3.4799060  33.7075390   9.5235820  18.0197260
  33.6645020   9.1528730  18.9011720  33.8386400  10.4613390  18.1599080
  37.4081420  11.0795410  13.6206980  37.1672780  11.3469970  12.7337500
  38.3484060  11.2501140  13.6757840  33.5463420  12.4698070  15.1395040
  32.9523740  12.3382770  15.8785080  33.5387260  11.6336210  14.6737140
  33.1775650   9.8356450  14.0903080  32.4509710   9.2161740  14.0229030
  33.2384800  10.2297060  13.2201160  36.7820750  12.0501450  10.8752490
  37.2985770  11.4388810  10.3500750  37.4318130  12.5530230  11.3663500
  39.5216250  12.9409940  11.7021470  39.8094060  12.6864240  10.8254480
  40.0339470  12.3887300  12.2927040  31.4605650  13.1530840   7.2999840
  31.2927690  12.5201520   7.9981730  30.5940160  13.3590240   6.9494030
  33.0668350  11.8464070   4.7449980  32.5415970  12.2272100   4.0411940
  32.9912930  12.4714840   5.4659690  39.5888610  13.8626040  19.0689670
  40.5155920  13.6270310  19.1125630  39.5739040  14.6898040  18.5875700
  35.6661320  13.7946450   3.6199230  36.3980140  13.5105730   3.0723120
  35.9254990  13.5559730   4.5098610  34.8276110   9.9111180   3.6245560
  34.1984990  10.3796280   4.1731390  34.9423940   9.0660400   4.0591750
  23.5082340  41.5103820  27.3233740  23.4276390  40.5958430  27.0525450
  23.0946760  42.0070890  26.6173450  21.6400380  43.2882840  29.2043010
  20.8642480  42.8083280  29.4941580  22.2913310  42.6088490  29.0299170
  15.6566210  43.6002650  30.0818770  14.8251090  43.3451360  30.4815280
  16.2647190  43.6713420  30.8176690  14.0658160  38.5604540  23.8661160
  13.1774860  38.9020510  23.7641040  14.3499350  38.3604860  22.9741990
  12.0291170  41.1610190  29.7500860  12.6007280  40.3932390  29.7504500
  12.0292710  41.4598950  28.8407470  13.2716040  36.5694550  31.5369790
  13.0918880  35.6720300  31.8172550  12.8696120  37.1166420  32.2116740
  22.1114540  38.7710410  29.4382100  22.4879360  37.8982290  29.3255770
  22.0134050  39.1069110  28.5472540  16.2419550  37.1436040  24.8999540
  16.3486300  38.0439770  25.2068300  15.3311910  37.0954010  24.6094190
  25.8938660  36.2660850  26.3710440  26.7148280  35.7757420  26.4135920
  25.9272740  36.8558510  27.1242280  13.8902710  39.0655050  30.1452130
  14.5712820  39.3293420  30.7639530  13.5750760  38.2255920  30.4790140
  18.0827280  40.1122410  29.2324720  18.5905500  40.6103380  29.8729740
  18.6140520  39.3357610  29.0564080  30.1838210  38.2827600  32.9354070
  29.4790380  38.6709310  32.4169180  30.4496130  38.9777890  33.5375000
  16.3663380  34.7520970  33.4988140  16.3681820  35.2693360  32.6934040
  15.5367690  34.2751150  33.4758070  17.6166230  44.3916150  31.6761640
  17.2835610  45.0185070  32.3182710  17.7932910  44.9178030  30.8963310
  26.1300140  38.2061230  29.1437980  25.4255710  38.4946120  29.7241090
  26.4912300  39.0161340  28.7837540  16.0478710  36.4630930  31.5058590
  16.3895520  37.3072980  31.2112460  15.1094520  36.6114670  31.6223930
  29.1987060  37.6516020  29.5347190  28.2511970  37.6855000  29.6662620
  29.5237050  38.4654970  29.9196550  19.7306600  33.9513200  27.8303180
  20.0381580  33.3960090  27.1138680  18.8007300  34.0857660  27.6476170
  24.6807100  44.5710330  31.4493250  25.0975890  44.3570440  30.6146710
  25.4046920  44.8283120  32.0201870  22.1187360  42.0162030  24.5663300
  21.1916640  41.9499410  24.7951770  22.2712180  42.9542160  24.4518540
  22.1056440  38.2879030  21.5630460  21.1660110  38.4492990  21.6482920
  22.4239700  39.0064710  21.0166450  28.6269200  42.9697550  31.5409490
  27.7987830  43.0390640  31.0659620  29.2219680  43.5551860  31.0725320
  26.1484650  43.5782330  25.0698550  25.5297070  43.2401880  24.4224850
  26.1309100  42.9342090  25.7777740  25.5911210  39.7566870  32.4864360
  25.1782390  40.5820580  32.7404350  24.8587160  39.1711910  32.2940720
  17.7244000  42.5426770  27.3483030  17.3201000  41.8304020  26.8528930
  17.8107120  42.1980010  28.2371070  16.4372620  39.3169980  31.1282070
  16.9887210  39.4265320  30.3535320  16.9516130  39.6907580  31.8437300
  24.3249350  42.8169140  22.0771300  24.7642630  41.9791570  21.9309120
  25.0377770  43.4498540  22.1635440  16.1115350  42.8389340  34.7387410
  15.9723120  43.7112140  35.1074810  15.2296710  42.4962150  34.5935350
  14.4248630  41.4371750  24.8489680  14.3046230  42.1633840  24.2370950
  14.1149520  40.6674660  24.3717590  12.0634000  44.6086890  30.6558320
  12.1414420  44.7435660  29.7114040  12.6775680  43.9002780  30.8486440
  29.1167780  38.8083450  36.3686480  28.5012050  39.3163120  35.8401940
  28.7964200  37.9081780  36.3112420  16.8912290  34.7806820  28.2313350
  16.4480440  35.5616360  27.8997870  17.4497280  35.1036710  28.9384290
  21.1782100  37.6475340  33.8348670  20.7161470  37.8558360  34.6468610
  20.7760210  36.8334690  33.5319340  26.1786610  38.8684290  34.9645330
  25.3280200  38.5690040  35.2854400  26.0188400  39.1126300  34.0529150
  23.2736320  40.3686040  37.0644120  23.5989730  39.5349790  36.7246350
  24.0616650  40.8914560  37.2122450  18.9288190  35.3254150  30.0902950
  19.2260520  36.2316980  30.0094970  19.4773750  34.8372930  29.4762520
  16.6826510  39.9040390  25.9594600  16.4567430  39.6877560  26.8641220
  15.9019040  40.3368850  25.6140570  23.9124270  39.9103760  24.5585250
  23.3133160  40.6339560  24.3748870  24.4603880  39.8480540  23.7761700
  19.1225720  40.8025970  36.6254870  19.0269320  39.8620700  36.4755270
  19.9657700  41.0241040  36.2302940  22.5189140  38.5467300  26.5888530
  22.9118710  38.8639500  25.7757220  22.8805990  37.6679180  26.7033050
  14.2536260  37.2139640  34.7788650  13.8599650  38.0614850  34.9861430
  13.5654660  36.5766010  34.9697290  11.5553310  35.1368100  28.8118730
  11.2666360  35.7070960  29.5243710  12.2999070  34.6572550  29.1749960
  11.7423540  39.0788220  20.0221450  11.6598210  40.0218980  20.1636440
  11.3906600  38.9363130  19.1433800  23.1044280  41.1373050  30.6839310
  22.3725400  41.6459860  31.0329410  22.7068620  40.3203030  30.3828090
  19.5421670  37.8127250  29.0891800  19.5457730  37.3717200  28.2396340
  20.4372790  38.1344580  29.1963620  15.3924050  37.6953740  28.0486010
  15.0524100  38.1728970  28.8053060  14.6301370  37.2418860  27.6887110
  19.6041820  38.8139330  22.0798560  19.7254640  38.7725810  23.0284380
  19.2190330  39.6763480  21.9245290  23.5670190  36.5906730  30.0962250
  23.5842930  37.0415380  30.9404100  23.3185770  35.6912370  30.3095690
  18.6163320  41.1240470  21.4781860  18.0480220  40.6758720  20.8517770
  19.3252320  41.4833250  20.9447010  26.9940940  34.0038910  35.9348630
  27.3186710  33.2728570  36.4606610  27.0297450  33.6852550  35.0329620
  19.8429640  41.8729030  30.8357210  20.2099770  41.3987600  31.5818550
  19.6534700  42.7470600  31.1765550  12.7070130  36.6172720  26.9650680
  12.4217050  36.2528390  27.8029300  12.6448990  35.8853180  26.3513820
  17.6329010  40.9137670  33.1541420  17.3286080  41.7929650  33.3791780
  18.5875470  40.9737460  33.1898860  16.1610800  45.1198660  23.7508270
  15.3873060  44.5796280  23.5906990  16.8905430  44.6005270  23.4126030
  26.9198780  44.1164020  29.5434660  27.6397900  44.6119310  29.1530770
  26.7180600  43.4381910  28.8988530  22.3017580  44.1873080  35.4303660
  22.2354890  43.2668750  35.1761250  21.6722720  44.2848520  36.1448300
  25.0957110  39.8821630  21.9826210  25.9836730  40.1938860  21.8077550
  25.0662200  39.0093880  21.5906790  16.2048200  44.7879040  27.3887080
  16.7226870  43.9847300  27.3343970  15.7532220  44.7258180  28.2303910
  13.6892740  41.7540410  34.3012780  13.3307680  42.4194260  34.8886120
  13.3947300  40.9223960  34.6725400  16.8905860  42.2124650  37.1852330
  16.5906000  42.3581830  36.2880150  17.6617100  41.6529940  37.0925720
  27.3671380  41.1933470  21.4506070  27.2835100  41.6247690  20.6002510
  28.0865570  41.6531820  21.8832890  28.4445520  43.6500990  34.5276040
  27.7193710  44.2429770  34.3305430  28.9720980  43.6424530  33.7289410
  23.9745110  45.3761160  28.0259890  24.3268930  44.7789290  27.3661260
  23.0907440  45.0505390  28.1968140  12.2000790  41.7531670  20.9247380
  13.0695640  42.0356470  21.2083300  11.7091110  42.5667540  20.8096190
  19.3635600  43.1404880  25.0455660  19.8198380  43.9510130  25.2715850
  19.0123810  42.8228020  25.8774150  12.2641310  35.2433650  34.9784880
  11.5499830  35.4430570  35.5837490  12.6836350  34.4673220  35.3499680
  26.3672260  44.8564130  22.3778710  26.0793960  45.3176820  23.1656590
  27.1624430  44.3961900  22.6462930  14.1847300  43.5705140  23.0529440
  13.5775250  44.3104040  23.0624740  14.6596650  43.6604500  22.2267640
  23.7580090  37.7355960  32.7286330  24.1260910  36.9151170  33.0565900
  22.8978290  37.7957850  33.1441980  27.1242120  36.6912900  23.5373890
  26.4955280  36.7958570  22.8232120  26.6294040  36.9109680  24.3267770
  19.0926150  38.9698850  24.9531770  18.3842300  39.4385190  25.3945380
  19.3770630  38.3120860  25.5876960  20.7182080  40.3895550  32.9524300
  21.2167330  40.8641370  33.6176150  20.8605030  39.4659070  33.1594330
  23.1241580  35.6949510  26.3927560  23.0009360  35.7135640  25.4437070
  24.0726140  35.7428450  26.5125960  17.2961170  37.2783930  22.3282480
  18.1451700  37.7154080  22.2622670  16.9292440  37.5904190  23.1554540
  27.9248940  36.6063510  33.7952690  27.4222540  37.3468910  34.1346500
  28.7405600  36.9947510  33.4789480  26.2170950  41.8496690  27.2414050
  25.2761090  41.8646920  27.4161740  26.5315020  41.0632650  27.6874350
  16.1952590  43.5316290  20.8018010  16.9615860  43.4197650  21.3643440
  16.2727280  42.8354260  20.1494780  14.8899350  40.9641360  21.4850900
  14.9702940  40.0168870  21.5968300  15.7819100  41.2948240  21.5911560
  12.4170150  42.7856280  36.7207070  12.9209170  42.2063560  37.2923300
  11.6777570  43.0696510  37.2583440  19.4708090  44.1927270  36.2542590
  18.7053760  44.7612270  36.1697260  19.6524050  43.9003480  35.3610820
  22.5596500  44.5690500  20.8795350  22.0106600  45.0159800  21.5238090
  23.1815760  44.0639750  21.4033020  18.2271620  43.5281420  22.7760650
  18.6488040  43.3621290  23.6192040  18.3522460  42.7181650  22.2815790
  16.3899040  39.5077970  35.5831630  15.8595500  39.0168920  34.9554970
  17.0587110  39.9362170  35.0489560  20.7399260  42.5519030  20.0237750
  21.2604920  41.8368050  19.6578900  21.3867660  43.1904900  20.3238260
  25.2877100  43.9747430  35.3472820  25.7018120  44.1292510  36.1963240
  24.3528100  44.1002650  35.5098600  25.7599270  41.3143590  37.3511970
  26.3420040  40.5595910  37.2632450  25.9361040  41.8451030  36.5743450
  16.8771340  36.4740340  35.6628920  16.7828210  35.8561090  34.9379790
  16.2968730  37.2006630  35.4358830  19.6432780  35.0313580  32.6956310
  19.1950080  35.0537840  31.8501860  19.0097980  34.6332600  33.2926610
  20.0492330  43.9267910  33.3168750  20.4680440  44.7700640  33.1444990
  19.1300960  44.0639950  33.0875530  22.3856230  41.6584090  34.7006590
  22.5052440  41.0625230  35.4401430  23.2450230  41.6953780  34.2807890
  24.7244130  42.2121280  33.2769100  24.1979350  42.7363900  32.6734240
  25.0675470  42.8448670  33.9078830  17.1230520  39.6014650  19.7218810
  16.9219580  38.7382010  20.0832150  16.9522570  39.5148010  18.7840410
  19.1525000  38.2005440  35.9582410  19.7424690  37.8921290  36.6460230
  18.3345240  37.7285190  36.1142310  23.9718430  37.8171250  36.1915430
  23.2833950  37.1552790  36.1265420  24.6924450  37.3709520  36.6363890
  15.9213320  36.7015270  19.7096690  16.2239220  36.7082700  18.8015840
  16.6607910  36.3513130  20.2064350  28.9799550  43.6499610  22.8609600
  29.7418460  44.2196260  22.9669290  28.9953920  43.0826810  23.6317910
  12.4803890  42.1737540  27.0917260  11.8252730  41.9049180  26.4476960
  13.3181840  42.0642020  26.6419240  29.9859520  44.5049710  27.7051530
  30.3568350  43.7217030  27.2987500  30.6261450  45.1938810  27.5268830
  29.0318720  43.9433980  20.0182120  29.3067560  44.8512860  19.8901340
  28.8429460  43.8796510  20.9544110  25.4294330  36.9678830  21.3135750
  25.8479210  36.7809810  20.4732410  25.1230390  36.1157880  21.6238680
  28.9284060  41.8802970  25.0111550  28.5527660  41.1130900  24.5792840
  28.1987180  42.2625670  25.4986480  13.5179820  42.5590110  31.6320600
  13.8852860  42.4717510  32.5116620  12.9490640  41.7956660  31.5327460
  28.3183680  41.0274490  34.6451070  28.0869770  40.7987240  33.7449020
  28.5788230  41.9474040  34.5995960  13.0695820  39.4699200  35.5379020
  12.1751870  39.4365960  35.8772730  13.6093370  39.6685990  36.3030270
  11.6941970  39.3836470  23.0342590  10.7906050  39.6466670  22.8594250
  12.1782590  39.6547640  22.2542550  28.2035020  40.1060460  28.3118790
  28.7272500  39.6123110  27.6808960  28.7894440  40.2410820  29.0566360
  28.3824740  40.1900330  31.8338340  27.4327450  40.1563870  31.9483330
  28.5637750  41.1000440  31.5988110  14.2369180  38.4402010  20.9436970
  14.9460880  38.0185230  20.4584250  13.5209120  38.5077240  20.3120320
  27.6934990  39.3633810  24.2511200  28.1894110  39.1304680  25.0360080
  27.4951060  38.5245650  23.8348840  13.5735530  33.7447530  29.8862240
  14.2211720  33.1944910  29.4457400  13.9937370  33.9990680  30.7078050
  29.1222150  37.9994760  26.7848880  29.0121430  37.8450800  27.7231150
  29.8829740  37.4715700  26.5424290  27.4687870  33.9388890  33.2431880
  28.1060090  34.5523030  33.6091070  27.6162760  33.9749550  32.2981110
  30.0850910  36.6013340  22.6511730  29.2902410  36.5358460  23.1804640
  30.2894190  37.5363980  22.6397080  13.3267530  33.9003200  32.6287560
  12.9782350  34.3567020  33.3945740  12.9955230  33.0060330  32.7109990
  20.8392350  35.0915080  36.1506980  20.7781240  35.6836910  36.9002390
  21.7792730  34.9841040  36.0057240  23.4766910  34.7485140  35.7899270
  24.0907320  35.0664430  35.1280350  24.0216470  34.2633730  36.4095130
  13.9988170  33.4279400  35.9038330  14.5471160  33.2467450  35.1404440
  14.0643480  32.6373510  36.4394640  24.2174950  33.3117280  32.1168560
  23.3434790  33.6452390  31.9141490  24.1085700  32.8390460  32.9420430
  25.1246930  35.5188150  33.5010280  24.7960290  34.7039910  33.1212010
  26.0729230  35.4757960  33.3775970  21.9649770  34.2287120  31.0561470
  21.1821560  34.7032620  31.3358230  21.6712700  33.3241950  30.9474650
  26.5170840  34.9310220  29.1010560  26.9578930  34.8755320  28.2532160
  26.2478430  35.8468230  29.1720740  28.3809410  34.5625460  27.1119380
  28.3197810  33.6186680  26.9650400  29.1601440  34.6705550  27.6572840
  19.8503990  36.6473870  26.5677500  19.0378500  36.2730760  26.2273380
  20.3545630  35.8918950  26.8698690  24.3528970  33.3116320  27.8060570
  24.9558340  33.8836530  28.2809090  23.6121960  33.8755760  27.5834470
  17.8753170  34.7973790  25.1722550  17.2455910  34.0961100  25.3392680
  17.3358310  35.5577920  24.9555710  23.5082340  41.5103820   8.5490250
  23.4276390  40.5958430   8.2781960  23.0946760  42.0070890   7.8429960
  21.6400380  43.2882840  10.4299520  20.8642480  42.8083280  10.7198090
  22.2913310  42.6088490  10.2555680  15.6566210  43.6002650  11.3075280
  14.8251090  43.3451360  11.7071790  16.2647190  43.6713420  12.0433200
  14.0658160  38.5604540   5.0917670  13.1774860  38.9020510   4.9897550
  14.3499350  38.3604860   4.1998500  12.0291170  41.1610190  10.9757370
  12.6007280  40.3932390  10.9761010  12.0292710  41.4598950  10.0663980
  13.2716040  36.5694550  12.7626300  13.0918880  35.6720300  13.0429060
  12.8696120  37.1166420  13.4373250  22.1114540  38.7710410  10.6638610
  22.4879360  37.8982290  10.5512280  22.0134050  39.1069110   9.7729050
  16.2419550  37.1436040   6.1256050  16.3486300  38.0439770   6.4324810
  15.3311910  37.0954010   5.8350700  25.8938660  36.2660850   7.5966950
  26.7148280  35.7757420   7.6392430  25.9272740  36.8558510   8.3498790
  13.8902710  39.0655050  11.3708640  14.5712820  39.3293420  11.9896040
  13.5750760  38.2255920  11.7046650  18.0827280  40.1122410  10.4581230
  18.5905500  40.6103380  11.0986250  18.6140520  39.3357610  10.2820590
  30.1838210  38.2827600  14.1610580  29.4790380  38.6709310  13.6425690
  30.4496130  38.9777890  14.7631510  16.3663380  34.7520970  14.7244650
  16.3681820  35.2693360  13.9190550  15.5367690  34.2751150  14.7014580
  17.6166230  44.3916150  12.9018150  17.2835610  45.0185070  13.5439220
  17.7932910  44.9178030  12.1219820  26.1300140  38.2061230  10.3694490
  25.4255710  38.4946120  10.9497600  26.4912300  39.0161340  10.0094050
  16.0478710  36.4630930  12.7315100  16.3895520  37.3072980  12.4368970
  15.1094520  36.6114670  12.8480440  29.1987060  37.6516020  10.7603700
  28.2511970  37.6855000  10.8919130  29.5237050  38.4654970  11.1453060
  19.7306600  33.9513200   9.0559690  20.0381580  33.3960090   8.3395190
  18.8007300  34.0857660   8.8732680  24.6807100  44.5710330  12.6749760
  25.0975890  44.3570440  11.8403220  25.4046920  44.8283120  13.2458380
  22.1187360  42.0162030   5.7919810  21.1916640  41.9499410   6.0208280
  22.2712180  42.9542160   5.6775050  22.1056440  38.2879030   2.7886970
  21.1660110  38.4492990   2.8739430  22.4239700  39.0064710   2.2422960
  28.6269200  42.9697550  12.7666000  27.7987830  43.0390640  12.2916130
  29.2219680  43.5551860  12.2981830  26.1484650  43.5782330   6.2955060
  25.5297070  43.2401880   5.6481360  26.1309100  42.9342090   7.0034250
  25.5911210  39.7566870  13.7120870  25.1782390  40.5820580  13.9660860
  24.8587160  39.1711910  13.5197230  17.7244000  42.5426770   8.5739540
  17.3201000  41.8304020   8.0785440  17.8107120  42.1980010   9.4627580
  16.4372620  39.3169980  12.3538580  16.9887210  39.4265320  11.5791830
  16.9516130  39.6907580  13.0693810  24.3249350  42.8169140   3.3027810
  24.7642630  41.9791570   3.1565630  25.0377770  43.4498540   3.3891950
  16.1115350  42.8389340  15.9643920  15.9723120  43.7112140  16.3331320
  15.2296710  42.4962150  15.8191860  14.4248630  41.4371750   6.0746190
  14.3046230  42.1633840   5.4627460  14.1149520  40.6674660   5.5974100
  12.0634000  44.6086890  11.8814830  12.1414420  44.7435660  10.9370550
  12.6775680  43.9002780  12.0742950  29.1167780  38.8083450  17.5942990
  28.5012050  39.3163120  17.0658450  28.7964200  37.9081780  17.5368930
  16.8912290  34.7806820   9.4569860  16.4480440  35.5616360   9.1254380
  17.4497280  35.1036710  10.1640800  21.1782100  37.6475340  15.0605180
  20.7161470  37.8558360  15.8725120  20.7760210  36.8334690  14.7575850
  26.1786610  38.8684290  16.1901840  25.3280200  38.5690040  16.5110910
  26.0188400  39.1126300  15.2785660  23.2736320  40.3686040  18.2900630
  23.5989730  39.5349790  17.9502860  24.0616650  40.8914560  18.4378960
  20.0071110  34.4017520   4.3375690  19.3825290  34.3977390   5.0629000
  19.9201230  33.5348480   3.9411660  18.9288190  35.3254150  11.3159460
  19.2260520  36.2316980  11.2351480  19.4773750  34.8372930  10.7019030
  16.6826510  39.9040390   7.1851110  16.4567430  39.6877560   8.0897730
  15.9019040  40.3368850   6.8397080  23.9124270  39.9103760   5.7841760
  23.3133160  40.6339560   5.6005380  24.4603880  39.8480540   5.0018210
  19.1225720  40.8025970  17.8511380  19.0269320  39.8620700  17.7011780
  19.9657700  41.0241040  17.4559450  22.5189140  38.5467300   7.8145040
  22.9118710  38.8639500   7.0013730  22.8805990  37.6679180   7.9289560
  14.2536260  37.2139640  16.0045160  13.8599650  38.0614850  16.2117940
  13.5654660  36.5766010  16.1953800  20.8281310  37.2974610  19.0741900
  20.1379630  37.1046810  19.7087990  21.5713610  37.5809250  19.6066200
  11.5553310  35.1368100  10.0375240  11.2666360  35.7070960  10.7500220
  12.2999070  34.6572550  10.4006470  23.1044280  41.1373050  11.9095820
  22.3725400  41.6459860  12.2585920  22.7068620  40.3203030  11.6084600
  19.5421670  37.8127250  10.3148310  19.5457730  37.3717200   9.4652850
  20.4372790  38.1344580  10.4220130  15.3924050  37.6953740   9.2742520
  15.0524100  38.1728970  10.0309570  14.6301370  37.2418860   8.9143620
  19.6041820  38.8139330   3.3055070  19.7254640  38.7725810   4.2540890
  19.2190330  39.6763480   3.1501800  23.5670190  36.5906730  11.3218760
  23.5842930  37.0415380  12.1660610  23.3185770  35.6912370  11.5352200
  18.6163320  41.1240470   2.7038370  18.0480220  40.6758720   2.0774280
  19.3252320  41.4833250   2.1703520  19.8429640  41.8729030  12.0613720
  20.2099770  41.3987600  12.8075060  19.6534700  42.7470600  12.4022060
  12.7070130  36.6172720   8.1907190  12.4217050  36.2528390   9.0285810
  12.6448990  35.8853180   7.5770330  17.6329010  40.9137670  14.3797930
  17.3286080  41.7929650  14.6048290  18.5875470  40.9737460  14.4155370
  16.1610800  45.1198660   4.9764780  15.3873060  44.5796280   4.8163500
  16.8905430  44.6005270   4.6382540  26.9198780  44.1164020  10.7691170
  27.6397900  44.6119310  10.3787280  26.7180600  43.4381910  10.1245040
  22.3808720  35.5101980   4.9120560  21.5673330  35.0115150   4.8365870
  22.1870670  36.3500230   4.4956910  22.3017580  44.1873080  16.6560170
  22.2354890  43.2668750  16.4017760  21.6722720  44.2848520  17.3704810
  25.0957110  39.8821630   3.2082720  25.9836730  40.1938860   3.0334060
  25.0662200  39.0093880   2.8163300  16.2048200  44.7879040   8.6143590
  16.7226870  43.9847300   8.5600480  15.7532220  44.7258180   9.4560420
  13.6892740  41.7540410  15.5269290  13.3307680  42.4194260  16.1142630
  13.3947300  40.9223960  15.8981910  16.8905860  42.2124650  18.4108840
  16.5906000  42.3581830  17.5136660  17.6617100  41.6529940  18.3182230
  27.3671380  41.1933470   2.6762580  27.2835100  41.6247690   1.8259020
  28.0865570  41.6531820   3.1089400  28.4445520  43.6500990  15.7532550
  27.7193710  44.2429770  15.5561940  28.9720980  43.6424530  14.9545920
  23.9745110  45.3761160   9.2516400  24.3268930  44.7789290   8.5917770
  23.0907440  45.0505390   9.4224650  12.2000790  41.7531670   2.1503890
  13.0695640  42.0356470   2.4339810  11.7091110  42.5667540   2.0352700
  19.3635600  43.1404880   6.2712170  19.8198380  43.9510130   6.4972360
  19.0123810  42.8228020   7.1030660  15.2647380  33.4842530   6.7434690
  15.1362010  33.4760430   7.6919610  14.4409400  33.8225620   6.3925700
  12.2641310  35.2433650  16.2041390  11.5499830  35.4430570  16.8094000
  12.6836350  34.4673220  16.5756190  26.3672260  44.8564130   3.6035220
  26.0793960  45.3176820   4.3913100  27.1624430  44.3961900   3.8719440
  14.1847300  43.5705140   4.2785950  13.5775250  44.3104040   4.2881250
  14.6596650  43.6604500   3.4524150  23.7580090  37.7355960  13.9542840
  24.1260910  36.9151170  14.2822410  22.8978290  37.7957850  14.3698490
  27.1242120  36.6912900   4.7630400  26.4955280  36.7958570   4.0488630
  26.6294040  36.9109680   5.5524280  19.0926150  38.9698850   6.1788280
  18.3842300  39.4385190   6.6201890  19.3770630  38.3120860   6.8133470
  20.7182080  40.3895550  14.1780810  21.2167330  40.8641370  14.8432660
  20.8605030  39.4659070  14.3850840  23.1241580  35.6949510   7.6184070
  23.0009360  35.7135640   6.6693580  24.0726140  35.7428450   7.7382470
  17.2961170  37.2783930   3.5538990  18.1451700  37.7154080   3.4879180
  16.9292440  37.5904190   4.3811050  27.9248940  36.6063510  15.0209200
  27.4222540  37.3468910  15.3603010  28.7405600  36.9947510  14.7045990
  26.2170950  41.8496690   8.4670560  25.2761090  41.8646920   8.6418250
  26.5315020  41.0632650   8.9130860  14.8899350  40.9641360   2.7107410
  14.9702940  40.0168870   2.8224810  15.7819100  41.2948240   2.8168070
  12.4170150  42.7856280  17.9463580  12.9209170  42.2063560  18.5179810
  11.6777570  43.0696510  18.4839950  19.4708090  44.1927270  17.4799100
  18.7053760  44.7612270  17.3953770  19.6524050  43.9003480  16.5867330
  22.5596500  44.5690500   2.1051860  22.0106600  45.0159800   2.7494600
  23.1815760  44.0639750   2.6289530  14.4493230  40.9285870  18.8413650
  14.4898570  40.6299740  19.7498880  15.3038730  41.3293480  18.6821170
  18.2271620  43.5281420   4.0017160  18.6488040  43.3621290   4.8448550
  18.3522460  42.7181650   3.5072300  16.3899040  39.5077970  16.8088140
  15.8595500  39.0168920  16.1811480  17.0587110  39.9362170  16.2746070
  25.2877100  43.9747430  16.5729330  25.7018120  44.1292510  17.4219750
  24.3528100  44.1002650  16.7355110  25.7599270  41.3143590  18.5768480
  26.3420040  40.5595910  18.4888960  25.9361040  41.8451030  17.7999960
  16.8771340  36.4740340  16.8885430  16.7828210  35.8561090  16.1636300
  16.2968730  37.2006630  16.6615340  19.6432780  35.0313580  13.9212820
  19.1950080  35.0537840  13.0758370  19.0097980  34.6332600  14.5183120
  20.0492330  43.9267910  14.5425260  20.4680440  44.7700640  14.3701500
  19.1300960  44.0639950  14.3132040  22.3856230  41.6584090  15.9263100
  22.5052440  41.0625230  16.6657940  23.2450230  41.6953780  15.5064400
  24.7244130  42.2121280  14.5025610  24.1979350  42.7363900  13.8990750
  25.0675470  42.8448670  15.1335340  19.1525000  38.2005440  17.1838920
  19.7424690  37.8921290  17.8716740  18.3345240  37.7285190  17.3398820
  23.9718430  37.8171250  17.4171940  23.2833950  37.1552790  17.3521930
  24.6924450  37.3709520  17.8620400  24.6018830  34.4122880   3.4762200
  24.8821120  33.5690780   3.8321620  23.8284560  34.6445990   3.9900950
  28.9799550  43.6499610   4.0866110  29.7418460  44.2196260   4.1925800
  28.9953920  43.0826810   4.8574420  12.4803890  42.1737540   8.3173770
  11.8252730  41.9049180   7.6733470  13.3181840  42.0642020   7.8675750
  29.9859520  44.5049710   8.9308040  30.3568350  43.7217030   8.5244010
  30.6261450  45.1938810   8.7525340  25.4294330  36.9678830   2.5392260
  25.8479210  36.7809810   1.6988920  25.1230390  36.1157880   2.8495190
  28.9284060  41.8802970   6.2368060  28.5527660  41.1130900   5.8049350
  28.1987180  42.2625670   6.7242990  13.5179820  42.5590110  12.8577110
  13.8852860  42.4717510  13.7373130  12.9490640  41.7956660  12.7583970
  28.3183680  41.0274490  15.8707580  28.0869770  40.7987240  14.9705530
  28.5788230  41.9474040  15.8252470  13.0695820  39.4699200  16.7635530
  12.1751870  39.4365960  17.1029240  13.6093370  39.6685990  17.5286780
  11.6941970  39.3836470   4.2599100  10.7906050  39.6466670   4.0850760
  12.1782590  39.6547640   3.4799060  28.2035020  40.1060460   9.5375300
  28.7272500  39.6123110   8.9065470  28.7894440  40.2410820  10.2822870
  28.3824740  40.1900330  13.0594850  27.4327450  40.1563870  13.1739840
  28.5637750  41.1000440  12.8244620  27.6934990  39.3633810   5.4767710
  28.1894110  39.1304680   6.2616590  27.4951060  38.5245650   5.0605350
  13.5735530  33.7447530  11.1118750  14.2211720  33.1944910  10.6713910
  13.9937370  33.9990680  11.9334560  29.1222150  37.9994760   8.0105390
  29.0121430  37.8450800   8.9487660  29.8829740  37.4715700   7.7680800
  27.4687870  33.9388890  14.4688390  28.1060090  34.5523030  14.8347580
  27.6162760  33.9749550  13.5237620  30.0850910  36.6013340   3.8768240
  29.2902410  36.5358460   4.4061150  30.2894190  37.5363980   3.8653590
  13.3267530  33.9003200  13.8544070  12.9782350  34.3567020  14.6202250
  12.9955230  33.0060330  13.9366500  24.2174950  33.3117280  13.3425070
  23.3434790  33.6452390  13.1398000  24.1085700  32.8390460  14.1676940
  25.1246930  35.5188150  14.7266790  24.7960290  34.7039910  14.3468520
  26.0729230  35.4757960  14.6032480  21.9649770  34.2287120  12.2817980
  21.1821560  34.7032620  12.5614740  21.6712700  33.3241950  12.1731160
  26.5170840  34.9310220  10.3267070  26.9578930  34.8755320   9.4788670
  26.2478430  35.8468230  10.3977250  28.3809410  34.5625460   8.3375890
  28.3197810  33.6186680   8.1906910  29.1601440  34.6705550   8.8829350
  13.3090180  34.5334600   4.8031700  14.0669540  34.6463480   4.2295730
  12.8467350  35.3703800   4.7575130  19.8503990  36.6473870   7.7934010
  19.0378500  36.2730760   7.4529890  20.3545630  35.8918950   8.0955200
  24.3528970  33.3116320   9.0317080  24.9558340  33.8836530   9.5065600
  23.6121960  33.8755760   8.8090980  27.4963570  33.7137880   4.3057360
  27.6914200  34.6121330   4.5724790  26.7093440  33.4824960   4.7990310
  15.6815330  35.0598650   3.3433670  16.2108090  34.2728450   3.2141620
  16.3143650  35.7389840   3.5769200  17.8753170  34.7973790   6.3979060
  17.2455910  34.0961100   6.5649190  17.3358310  35.5577920   6.1812220
  21.6400380  24.5139350  29.2043010  20.8642480  24.0339790  29.4941580
  22.2913310  23.8345000  29.0299170  15.6566210  24.8259160  30.0818770
  14.8251090  24.5707870  30.4815280  16.2647190  24.8969930  30.8176690
  25.6607810  28.9199540  27.9842140  25.1989340  28.1486780  28.3129310
  26.4733360  28.9465610  28.4894590  15.6367470  28.8599250  30.2776790
  15.9395510  27.9696990  30.0987010  16.3811060  29.4169470  30.0499040
  12.0291170  22.3866700  29.7500860  12.6007280  21.6188900  29.7504500
  12.0292710  22.6855460  28.8407470  21.8871120  31.2057550  27.6046130
  21.2682560  31.6615050  27.0340570  22.7422900  31.3609010  27.2035830
  21.0809370  27.1896540  29.2113170  21.0117650  26.2486480  29.0502300
  21.8429230  27.2797950  29.7835740  13.2716040  17.7951060  31.5369790
  13.0918880  16.8976810  31.8172550  12.8696120  18.3422930  32.2116740
  22.1114540  19.9966920  29.4382100  22.4879360  19.1238800  29.3255770
  22.0134050  20.3325620  28.5472540  25.8938660  17.4917360  26.3710440
  26.7148280  17.0013930  26.4135920  25.9272740  18.0815020  27.1242280
  13.8902710  20.2911560  30.1452130  14.5712820  20.5549930  30.7639530
  13.5750760  19.4512430  30.4790140  18.0827280  21.3378920  29.2324720
  18.5905500  21.8359890  29.8729740  18.6140520  20.5614120  29.0564080
  30.1838210  19.5084110  32.9354070  29.4790380  19.8965820  32.4169180
  30.4496130  20.2034400  33.5375000  16.3663380  15.9777480  33.4988140
  16.3681820  16.4949870  32.6934040  15.5367690  15.5007660  33.4758070
  17.6166230  25.6172660  31.6761640  17.2835610  26.2441580  32.3182710
  17.7932910  26.1434540  30.8963310  26.1300140  19.4317740  29.1437980
  25.4255710  19.7202630  29.7241090  26.4912300  20.2417850  28.7837540
  16.0478710  17.6887440  31.5058590  16.3895520  18.5329490  31.2112460
  15.1094520  17.8371180  31.6223930  16.8285330  27.5853460  33.4910820
  17.4459330  28.2604540  33.2095270  15.9678450  27.9941440  33.3998320
  27.7462920  29.0492870  31.4065460  27.0626440  29.7191980  31.3982130
  28.2857210  29.2473520  30.6410320  29.1987060  18.8772530  29.5347190
  28.2511970  18.9111510  29.6662620  29.5237050  19.6911480  29.9196550
  19.7306600  15.1769710  27.8303180  20.0381580  14.6216600  27.1138680
  18.8007300  15.3114170  27.6476170  25.2821660  30.8937000  30.1210640
  25.2948820  30.4899290  29.2532900  24.7296880  31.6684290  30.0172070
  24.6807100  25.7966840  31.4493250  25.0975890  25.5826950  30.6146710
  25.4046920  26.0539630  32.0201870  28.6269200  24.1954060  31.5409490
  27.7987830  24.2647150  31.0659620  29.2219680  24.7808370  31.0725320
  25.5911210  20.9823380  32.4864360  25.1782390  21.8077090  32.7404350
  24.8587160  20.3968420  32.2940720  17.7244000  23.7683280  27.3483030
  17.3201000  23.0560530  26.8528930  17.8107120  23.4236520  28.2371070
  18.1925700  27.4550840  29.5122240  17.8953990  26.8496310  28.8330020
  19.1425520  27.4928150  29.4011600  16.4372620  20.5426490  31.1282070
  16.9887210  20.6521830  30.3535320  16.9516130  20.9164090  31.8437300
  26.2811310  31.0282710  33.1745340  25.8041870  31.8354900  32.9817950
  25.5973100  30.3761040  33.3271550  17.2844130  27.1932530  36.1630040
  16.3872660  27.4172500  36.4103440  17.3097000  27.3167470  35.2141440
  16.1115350  24.0645850  34.7387410  15.9723120  24.9368650  35.1074810
  15.2296710  23.7218660  34.5935350  17.9095700  30.0067550  36.9472560
  17.8811130  30.4110500  36.0800990  17.7460670  29.0777910  36.7844160
  27.9066490  15.2968460  20.3912340  27.5939150  15.3895290  21.2911410
  28.6678960  15.8749490  20.3409770  12.0634000  25.8343400  30.6558320
  12.1414420  25.9692170  29.7114040  12.6775680  25.1259290  30.8486440
  29.2643770  27.9807500  35.4036740  29.3906830  27.7419380  34.4853920
  29.3065150  27.1492040  35.8758820  23.1260510  31.6835500  33.9731550
  23.6405180  31.5943510  34.7753980  22.2829590  32.0295200  34.2659460
  24.3690970  31.1041110  26.0362040  24.8247920  30.3230490  26.3500660
  24.7083490  31.8147930  26.5803220  29.1167780  20.0339960  36.3686480
  28.5012050  20.5419630  35.8401940  28.7964200  19.1338290  36.3112420
  12.1193520  26.8757570  33.1952780  12.2824560  26.4062930  32.3772150
  12.5845970  26.3681130  33.8601620  16.8912290  16.0063330  28.2313350
  16.4480440  16.7872870  27.8997870  17.4497280  16.3293220  28.9384290
  21.1782100  18.8731850  33.8348670  20.7161470  19.0814870  34.6468610
  20.7760210  18.0591200  33.5319340  26.1786610  20.0940800  34.9645330
  25.3280200  19.7946550  35.2854400  26.0188400  20.3382810  34.0529150
  23.2736320  21.5942550  37.0644120  23.5989730  20.7606300  36.7246350
  24.0616650  22.1171070  37.2122450  18.9288190  16.5510660  30.0902950
  19.2260520  17.4573490  30.0094970  19.4773750  16.0629440  29.4762520
  19.1225720  22.0282480  36.6254870  19.0269320  21.0877210  36.4755270
  19.9657700  22.2497550  36.2302940  14.2536260  18.4396150  34.7788650
  13.8599650  19.2871360  34.9861430  13.5654660  17.8022520  34.9697290
  11.5553310  16.3624610  28.8118730  11.2666360  16.9327470  29.5243710
  12.2999070  15.8829060  29.1749960  11.7423540  20.3044730  20.0221450
  11.6598210  21.2475490  20.1636440  11.3906600  20.1619640  19.1433800
  23.1044280  22.3629560  30.6839310  22.3725400  22.8716370  31.0329410
  22.7068620  21.5459540  30.3828090  19.5421670  19.0383760  29.0891800
  19.5457730  18.5973710  28.2396340  20.4372790  19.3601090  29.1963620
  23.5670190  17.8163240  30.0962250  23.5842930  18.2671890  30.9404100
  23.3185770  16.9168880  30.3095690  26.9940940  15.2295420  35.9348630
  27.3186710  14.4985080  36.4606610  27.0297450  14.9109060  35.0329620
  13.6932500  26.2509000  35.3548590  13.3087290  25.6102670  35.9531550
  14.0044690  26.9545120  35.9243320  19.8429640  23.0985540  30.8357210
  20.2099770  22.6244110  31.5818550  19.6534700  23.9727110  31.1765550
  12.7070130  17.8429230  26.9650680  12.4217050  17.4784900  27.8029300
  12.6448990  17.1109690  26.3513820  17.6329010  22.1394180  33.1541420
  17.3286080  23.0186160  33.3791780  18.5875470  22.1993970  33.1898860
  26.9198780  25.3420530  29.5434660  27.6397900  25.8375820  29.1530770
  26.7180600  24.6638420  28.8988530  22.3017580  25.4129590  35.4303660
  22.2354890  24.4925260  35.1761250  21.6722720  25.5105030  36.1448300
  13.6892740  22.9796920  34.3012780  13.3307680  23.6450770  34.8886120
  13.3947300  22.1480470  34.6725400  16.8905860  23.4381160  37.1852330
  16.5906000  23.5838340  36.2880150  17.6617100  22.8786450  37.0925720
  22.2334310  28.2350160  35.1807460  22.2478850  27.3031120  34.9626370
  21.5259410  28.3209920  35.8197230  28.4445520  24.8757500  34.5276040
  27.7193710  25.4686280  34.3305430  28.9720980  24.8681040  33.7289410
  28.3958630  29.2732240  24.1788200  27.7534790  28.6187860  24.4531920
  28.0089290  29.6787330  23.4028870  21.6668210  29.8767730  32.2747960
  22.3110430  30.0827110  32.9521380  22.0297650  29.1156130  31.8218810
  15.2647380  14.7099040  25.5178180  15.1362010  14.7016940  26.4663100
  14.4409400  15.0482130  25.1669190  22.9400290  27.8800080  30.9925410
  23.5822520  27.1793240  31.1057580  23.4649640  28.6598520  30.8122300
  24.7137910  28.6794980  34.1961470  25.0494150  29.2661670  34.8739390
  23.7938250  28.5487690  34.4259260  12.2641310  16.4690160  34.9784880
  11.5499830  16.6687080  35.5837490  12.6836350  15.6929730  35.3499680
  12.5513900  30.4570420  35.9651410  12.6605020  29.5165160  35.8246800
  11.8994460  30.7225170  35.3165140  23.7580090  18.9612470  32.7286330
  24.1260910  18.1407680  33.0565900  22.8978290  19.0214360  33.1441980
  20.7182080  21.6152060  32.9524300  21.2167330  22.0897880  33.6176150
  20.8605030  20.6915580  33.1594330  27.9248940  17.8320020  33.7952690
  27.4222540  18.5725420  34.1346500  28.7405600  18.2204020  33.4789480
  26.2170950  23.0753200  27.2414050  25.2761090  23.0903430  27.4161740
  26.5315020  22.2889160  27.6874350  28.2196530  30.2462050  28.9168310
  28.3443950  31.0693220  29.3892120  29.0862090  30.0352780  28.5692460
  15.6914060  32.3393260  28.5885440  16.4276540  31.7908720  28.8594010
  16.0754980  33.2049270  28.4491430  24.9637340  31.3599490  36.3355840
  25.9159090  31.2757510  36.2856080  24.8165560  32.0241200  37.0089630
  12.4170150  24.0112790  36.7207070  12.9209170  23.4320070  37.2923300
  11.6777570  24.2953020  37.2583440  19.4708090  25.4183780  36.2542590
  18.7053760  25.9868780  36.1697260  19.6524050  25.1259990  35.3610820
  26.6131440  27.1489110  36.8117610  27.3540910  27.4864870  36.3085070
  25.8504120  27.3181170  36.2587380  16.3899040  20.7334480  35.5831630
  15.8595500  20.2425430  34.9554970  17.0587110  21.1618680  35.0489560
  25.2877100  25.2003940  35.3472820  25.7018120  25.3549020  36.1963240
  24.3528100  25.3259160  35.5098600  25.7599270  22.5400100  37.3511970
  26.3420040  21.7852420  37.2632450  25.9361040  23.0707540  36.5743450
  16.8771340  17.6996850  35.6628920  16.7828210  17.0817600  34.9379790
  16.2968730  18.4263140  35.4358830  19.6432780  16.2570090  32.6956310
  19.1950080  16.2794350  31.8501860  19.0097980  15.8589110  33.2926610
  20.0492330  25.1524420  33.3168750  20.4680440  25.9957150  33.1444990
  19.1300960  25.2896460  33.0875530  22.3856230  22.8840600  34.7006590
  22.5052440  22.2881740  35.4401430  23.2450230  22.9210290  34.2807890
  24.7244130  23.4377790  33.2769100  24.1979350  23.9620410  32.6734240
  25.0675470  24.0705180  33.9078830  17.8999750  31.4577430  34.4326480
  17.3620840  32.1823490  34.1135180  18.1533710  30.9807770  33.6423820
  19.1525000  19.4261950  35.9582410  19.7424690  19.1177800  36.6460230
  18.3345240  18.9541700  36.1142310  23.9718430  19.0427760  36.1915430
  23.2833950  18.3809300  36.1265420  24.6924450  18.5966030  36.6363890
  20.7561960  32.6928640  34.6913130  20.6820660  33.5963780  34.9985500
  19.8540800  32.3740540  34.6635200  12.1589250  30.0203230  27.9946750
  12.4892260  29.1524290  27.7625390  12.5880250  30.2261750  28.8251710
  12.6479460  30.8873820  30.7328380  12.2110450  31.0674620  31.5652530
  13.2157140  31.6448440  30.5910100  28.2841640  30.3890820  35.0205690
  27.6843630  30.4483380  34.2769610  28.4135540  29.4495800  35.1502540
  29.5243090  28.1308640  20.3575400  28.6936050  28.1985290  20.8282630
  29.7014920  29.0212760  20.0542260  28.9799550  24.8756120  22.8609600
  29.7418460  25.4452770  22.9669290  28.9953920  24.3083320  23.6317910
  12.4803890  23.3994050  27.0917260  11.8252730  23.1305690  26.4476960
  13.3181840  23.2898530  26.6419240  29.9859520  25.7306220  27.7051530
  30.3568350  24.9473540  27.2987500  30.6261450  26.4195320  27.5268830
  26.9693280  27.1142800  33.1181850  26.1553120  27.5439960  33.3807640
  27.3767480  27.7261210  32.5050900  29.0318720  25.1690490  20.0182120
  29.3067560  26.0769370  19.8901340  28.8429460  25.1053020  20.9544110
  28.9284060  23.1059480  25.0111550  28.5527660  22.3387410  24.5792840
  28.1987180  23.4882180  25.4986480  13.5179820  23.7846620  31.6320600
  13.8852860  23.6974020  32.5116620  12.9490640  23.0213170  31.5327460
  28.3183680  22.2531000  34.6451070  28.0869770  22.0243750  33.7449020
  28.5788230  23.1730550  34.5995960  13.0695820  20.6955710  35.5379020
  12.1751870  20.6622470  35.8772730  13.6093370  20.8942500  36.3030270
  11.6941970  20.6092980  23.0342590  10.7906050  20.8723180  22.8594250
  12.1782590  20.8804150  22.2542550  28.2035020  21.3316970  28.3118790
  28.7272500  20.8379620  27.6808960  28.7894440  21.4667330  29.0566360
  28.3824740  21.4156840  31.8338340  27.4327450  21.3820380  31.9483330
  28.5637750  22.3256950  31.5988110  13.5735530  14.9704040  29.8862240
  14.2211720  14.4201420  29.4457400  13.9937370  15.2247190  30.7078050
  29.1222150  19.2251270  26.7848880  29.0121430  19.0707310  27.7231150
  29.8829740  18.6972210  26.5424290  27.4687870  15.1645400  33.2431880
  28.1060090  15.7779540  33.6091070  27.6162760  15.2006060  32.2981110
  30.0112420  17.0559190  20.0255020  30.9361730  16.9240370  19.8173310
  29.9888210  17.1352010  20.9791470  30.0850910  17.8269850  22.6511730
  29.2902410  17.7614970  23.1804640  30.2894190  18.7620490  22.6397080
  27.0269330  31.8661400  26.6450120  27.6228400  31.5445970  25.9684540
  27.2847480  31.3933220  27.4363390  13.3267530  15.1259710  32.6287560
  12.9782350  15.5823530  33.3945740  12.9955230  14.2316840  32.7109990
  18.6337930  29.8538900  32.3950470  18.3929290  30.1213460  31.5080990
  19.5740570  30.0244630  32.4501330  20.8392350  16.3171590  36.1506980
  20.7781240  16.9093420  36.9002390  21.7792730  16.2097550  36.0057240
  23.4766910  15.9741650  35.7899270  24.0907320  16.2920940  35.1280350
  24.0216470  15.4890240  36.4095130  29.8942090  31.8733280  33.1961110
  29.4000370  32.2702150  32.4788240  29.2855380  31.2482490  33.5898390
  13.9988170  14.6535910  35.9038330  14.5471160  14.4723960  35.1404440
  14.0643480  13.8630020  36.4394640  14.7719930  31.2441560  33.9138530
  14.1780250  31.1126260  34.6528570  14.7643770  30.4079700  33.4480630
  24.2174950  14.5373790  32.1168560  23.3434790  14.8708900  31.9141490
  24.1085700  14.0646970  32.9420430  25.1246930  16.7444660  33.5010280
  24.7960290  15.9296420  33.1212010  26.0729230  16.7014470  33.3775970
  27.5781540  32.5156700  30.4747850  27.1184510  33.2672510  30.1005870
  26.9494000  31.7963170  30.4162650  14.4032160  28.6099940  32.8646570
  13.6766220  27.9905230  32.7972520  14.4641310  29.0040550  31.9944650
  18.0077260  30.8244940  29.6495980  18.5242280  30.2132300  29.1244240
  18.6574640  31.3273720  30.1406990  20.7472760  31.7153430  30.4764960
  21.0350570  31.4607730  29.5997970  21.2595980  31.1630790  31.0670530
  21.9649770  15.4543630  31.0561470  21.1821560  15.9289130  31.3358230
  21.6712700  14.5498460  30.9474650  26.5170840  16.1566730  29.1010560
  26.9578930  16.1011830  28.2532160  26.2478430  17.0724740  29.1720740
  28.3809410  15.7881970  27.1119380  28.3197810  14.8443190  26.9650400
  29.1601440  15.8962060  27.6572840  12.6862160  31.9274330  26.0743330
  12.5184200  31.2945010  26.7725220  11.8196670  32.1333730  25.7237520
  13.3090180  15.7591110  23.5775190  14.0669540  15.8719990  23.0039220
  12.8467350  16.5960310  23.5318620  24.3528970  14.5372830  27.8060570
  24.9558340  15.1093040  28.2809090  23.6121960  15.1012270  27.5834470
  27.4963570  14.9394390  23.0800850  27.6914200  15.8377840  23.3468280
  26.7093440  14.7081470  23.5733800  29.0490180  32.1795100  24.8407410
  29.2242370  31.4932840  24.1968330  28.3511750  32.7042150  24.4484080
  23.5082340  22.7360330   8.5490250  23.4276390  21.8214940   8.2781960
  23.0946760  23.2327400   7.8429960  21.6400380  24.5139350  10.4299520
  20.8642480  24.0339790  10.7198090  22.2913310  23.8345000  10.2555680
  15.6566210  24.8259160  11.3075280  14.8251090  24.5707870  11.7071790
  16.2647190  24.8969930  12.0433200  25.6607810  28.9199540   9.2098650
  25.1989340  28.1486780   9.5385820  26.4733360  28.9465610   9.7151100
  15.6367470  28.8599250  11.5033300  15.9395510  27.9696990  11.3243520
  16.3811060  29.4169470  11.2755550  14.0658160  19.7861050   5.0917670
  13.1774860  20.1277020   4.9897550  14.3499350  19.5861370   4.1998500
  12.0291170  22.3866700  10.9757370  12.6007280  21.6188900  10.9761010
  12.0292710  22.6855460  10.0663980  21.8871120  31.2057550   8.8302640
  21.2682560  31.6615050   8.2597080  22.7422900  31.3609010   8.4292340
  21.0809370  27.1896540  10.4369680  21.0117650  26.2486480  10.2758810
  21.8429230  27.2797950  11.0092250  13.2716040  17.7951060  12.7626300
  13.0918880  16.8976810  13.0429060  12.8696120  18.3422930  13.4373250
  22.1114540  19.9966920  10.6638610  22.4879360  19.1238800  10.5512280
  22.0134050  20.3325620   9.7729050  16.2419550  18.3692550   6.1256050
  16.3486300  19.2696280   6.4324810  15.3311910  18.3210520   5.8350700
  25.8938660  17.4917360   7.5966950  26.7148280  17.0013930   7.6392430
  25.9272740  18.0815020   8.3498790  13.8902710  20.2911560  11.3708640
  14.5712820  20.5549930  11.9896040  13.5750760  19.4512430  11.7046650
  30.1838210  19.5084110  14.1610580  29.4790380  19.8965820  13.6425690
  30.4496130  20.2034400  14.7631510  22.7534470  26.0896790   6.2234550
  22.1351740  26.5546240   5.6597270  23.2657720  26.7824270   6.6404060
  26.1300140  19.4317740  10.3694490  25.4255710  19.7202630  10.9497600
  26.4912300  20.2417850  10.0094050  12.1217670  26.7753320   3.5974180
  11.7445650  27.2640420   2.8659080  12.3790740  27.4478600   4.2280710
  27.7462920  29.0492870  12.6321970  27.0626440  29.7191980  12.6238640
  28.2857210  29.2473520  11.8666830  29.1987060  18.8772530  10.7603700
  28.2511970  18.9111510  10.8919130  29.5237050  19.6911480  11.1453060
  19.7306600  15.1769710   9.0559690  20.0381580  14.6216600   8.3395190
  18.8007300  15.3114170   8.8732680  25.2821660  30.8937000  11.3467150
  25.2948820  30.4899290  10.4789410  24.7296880  31.6684290  11.2428580
  26.5767080  27.6153220   6.4357320  26.4663410  26.6727550   6.5606740
  26.5735330  27.9768860   7.3220080  24.6807100  25.7966840  12.6749760
  25.0975890  25.5826950  11.8403220  25.4046920  26.0539630  13.2458380
  22.1187360  23.2418540   5.7919810  21.1916640  23.1755920   6.0208280
  22.2712180  24.1798670   5.6775050  22.1056440  19.5135540   2.7886970
  21.1660110  19.6749500   2.8739430  22.4239700  20.2321220   2.2422960
  28.6269200  24.1954060  12.7666000  27.7987830  24.2647150  12.2916130
  29.2219680  24.7808370  12.2981830  26.1484650  24.8038840   6.2955060
  25.5297070  24.4658390   5.6481360  26.1309100  24.1598600   7.0034250
  17.7244000  23.7683280   8.5739540  17.3201000  23.0560530   8.0785440
  17.8107120  23.4236520   9.4627580  18.1925700  27.4550840  10.7378750
  17.8953990  26.8496310  10.0586530  19.1425520  27.4928150  10.6268110
  26.2811310  31.0282710  14.4001850  25.8041870  31.8354900  14.2074460
  25.5973100  30.3761040  14.5528060  24.3249350  24.0425650   3.3027810
  24.7642630  23.2048080   3.1565630  25.0377770  24.6755050   3.3891950
  22.4344730  28.9821720   7.2709050  22.8740640  29.7246050   6.8564440
  22.3731620  29.2248290   8.1948010  14.4248630  22.6628260   6.0746190
  14.3046230  23.3890350   5.4627460  14.1149520  21.8931170   5.5974100
  12.0634000  25.8343400  11.8814830  12.1414420  25.9692170  10.9370550
  12.6775680  25.1259290  12.0742950  13.3081630  27.5343590   8.2921010
  12.9009710  27.6758180   7.4374610  14.1994640  27.2503750   8.0892220
  25.1014910  31.9690840   4.6272060  24.9416050  31.6793780   5.5253890
  24.9361620  31.1930970   4.0917290  17.5803290  31.7489370   6.4043680
  17.4045770  30.8324910   6.1911480  16.7259030  32.1076660   6.6441480
  24.8041040  29.4778400   3.1870060  24.1106200  29.4755690   2.5272340
  25.5463900  29.0537720   2.7564230  24.3690970  31.1041110   7.2618550
  24.8247920  30.3230490   7.5757170  24.7083490  31.8147930   7.8059730
  29.1167780  20.0339960  17.5942990  28.5012050  20.5419630  17.0658450
  28.7964200  19.1338290  17.5368930  16.8912290  16.0063330   9.4569860
  16.4480440  16.7872870   9.1254380  17.4497280  16.3293220  10.1640800
  20.0071110  15.6274030   4.3375690  19.3825290  15.6233900   5.0629000
  19.9201230  14.7604990   3.9411660  18.9288190  16.5510660  11.3159460
  19.2260520  17.4573490  11.2351480  19.4773750  16.0629440  10.7019030
  16.6826510  21.1296900   7.1851110  16.4567430  20.9134070   8.0897730
  15.9019040  21.5625360   6.8397080  23.9124270  21.1360270   5.7841760
  23.3133160  21.8596070   5.6005380  24.4603880  21.0737050   5.0018210
  22.5189140  19.7723810   7.8145040  22.9118710  20.0896010   7.0013730
  22.8805990  18.8935690   7.9289560  11.5553310  16.3624610  10.0375240
  11.2666360  16.9327470  10.7500220  12.2999070  15.8829060  10.4006470
  19.5421670  19.0383760  10.3148310  19.5457730  18.5973710   9.4652850
  20.4372790  19.3601090  10.4220130  15.3924050  18.9210250   9.2742520
  15.0524100  19.3985480  10.0309570  14.6301370  18.4675370   8.9143620
  19.6041820  20.0395840   3.3055070  19.7254640  19.9982320   4.2540890
  19.2190330  20.9019990   3.1501800  23.5670190  17.8163240  11.3218760
  23.5842930  18.2671890  12.1660610  23.3185770  16.9168880  11.5352200
  18.6163320  22.3496980   2.7038370  18.0480220  21.9015230   2.0774280
  19.3252320  22.7089760   2.1703520  26.9940940  15.2295420  17.1605140
  27.3186710  14.4985080  17.6863120  27.0297450  14.9109060  16.2586130
  12.7070130  17.8429230   8.1907190  12.4217050  17.4784900   9.0285810
  12.6448990  17.1109690   7.5770330  16.1610800  26.3455170   4.9764780
  15.3873060  25.8052790   4.8163500  16.8905430  25.8261780   4.6382540
  26.9198780  25.3420530  10.7691170  27.6397900  25.8375820  10.3787280
  26.7180600  24.6638420  10.1245040  22.3808720  16.7358490   4.9120560
  21.5673330  16.2371660   4.8365870  22.1870670  17.5756740   4.4956910
  25.0957110  21.1078140   3.2082720  25.9836730  21.4195370   3.0334060
  25.0662200  20.2350390   2.8163300  16.2048200  26.0135550   8.6143590
  16.7226870  25.2103810   8.5600480  15.7532220  25.9514690   9.4560420
  21.0917700  27.2801830   3.8870890  21.4333400  28.0244060   3.3914210
  20.2630410  27.5932950   4.2495720  27.3671380  22.4189980   2.6762580
  27.2835100  22.8504200   1.8259020  28.0865570  22.8788330   3.1089400
  28.4445520  24.8757500  15.7532550  27.7193710  25.4686280  15.5561940
  28.9720980  24.8681040  14.9545920  28.3958630  29.2732240   5.4044710
  27.7534790  28.6187860   5.6788430  28.0089290  29.6787330   4.6285380
  23.9745110  26.6017670   9.2516400  24.3268930  26.0045800   8.5917770
  23.0907440  26.2761900   9.4224650  20.0608390  27.3615360   6.6586810
  20.7479520  27.9084570   7.0394400  19.2740810  27.9056090   6.6936420
  12.2000790  22.9788180   2.1503890  13.0695640  23.2612980   2.4339810
  11.7091110  23.7924050   2.0352700  19.3635600  24.3661390   6.2712170
  19.8198380  25.1766640   6.4972360  19.0123810  24.0484530   7.1030660
  21.6668210  29.8767730  13.5004470  22.3110430  30.0827110  14.1777890
  22.0297650  29.1156130  13.0475320  15.2647380  14.7099040   6.7434690
  15.1362010  14.7016940   7.6919610  14.4409400  15.0482130   6.3925700
  22.9400290  27.8800080  12.2181920  23.5822520  27.1793240  12.3314090
  23.4649640  28.6598520  12.0378810  12.5672040  32.1915560   2.7165520
  12.9269680  32.7904900   2.0622790  12.4264380  32.7375450   3.4900550
  12.2641310  16.4690160  16.2041390  11.5499830  16.6687080  16.8094000
  12.6836350  15.6929730  16.5756190  26.3672260  26.0820640   3.6035220
  26.0793960  26.5433330   4.3913100  27.1624430  25.6218410   3.8719440
  18.5840660  29.5746760   3.5339190  18.5750760  30.3076450   2.9183700
  17.6639020  29.3278340   3.6266150  14.1847300  24.7961650   4.2785950
  13.5775250  25.5360550   4.2881250  14.6596650  24.8861010   3.4524150
  27.1242120  17.9169410   4.7630400  26.4955280  18.0215080   4.0488630
  26.6294040  18.1366190   5.5524280  19.0926150  20.1955360   6.1788280
  18.3842300  20.6641700   6.6201890  19.3770630  19.5377370   6.8133470
  23.1241580  16.9206020   7.6184070  23.0009360  16.9392150   6.6693580
  24.0726140  16.9684960   7.7382470  20.2118370  32.1561320   6.8912050
  20.4659870  32.1182710   5.9691420  19.2630850  32.0294650   6.8840300
  17.2961170  18.5040440   3.5538990  18.1451700  18.9410590   3.4879180
  16.9292440  18.8160700   4.3811050  27.9248940  17.8320020  15.0209200
  27.4222540  18.5725420  15.3603010  28.7405600  18.2204020  14.7045990
  26.2170950  23.0753200   8.4670560  25.2761090  23.0903430   8.6418250
  26.5315020  22.2889160   8.9130860  14.8899350  22.1897870   2.7107410
  14.9702940  21.2425380   2.8224810  15.7819100  22.5204750   2.8168070
  28.2196530  30.2462050  10.1424820  28.3443950  31.0693220  10.6148630
  29.0862090  30.0352780   9.7948970  15.6914060  32.3393260   9.8141950
  16.4276540  31.7908720  10.0850520  16.0754980  33.2049270   9.6747940
  12.5759540  28.4066830   5.6883460  11.6499320  28.6487970   5.6788870
  13.0415970  29.2341090   5.5668210  27.8546540  30.7393700   3.0604260
  27.5688050  30.3258840   2.2458440  27.6566090  31.6681410   2.9404780
  22.5596500  25.7947010   2.1051860  22.0106600  26.2416310   2.7494600
  23.1815760  25.2896260   2.6289530  18.2271620  24.7537930   4.0017160
  18.6488040  24.5877800   4.8448550  18.3522460  23.9438160   3.5072300
  24.6018830  15.6379390   3.4762200  24.8821120  14.7947290   3.8321620
  23.8284560  15.8702500   3.9900950  21.3047290  31.8587150   3.5396000
  22.1998080  32.1972120   3.5614760  21.3364920  31.1366560   2.9120280
  14.9443450  27.2314200   1.7683000  15.3818320  27.7743870   2.4240580
  15.4291180  26.4061150   1.7779340  12.1589250  30.0203230   9.2203260
  12.4892260  29.1524290   8.9881900  12.5880250  30.2261750  10.0508220
  16.7551170  28.3512240   6.8805230  16.4546710  28.2277210   7.7809140
  16.6488660  27.4920830   6.4720960  12.6479460  30.8873820  11.9584890
  12.2110450  31.0674620  12.7909040  13.2157140  31.6448440  11.8166610
  28.9799550  24.8756120   4.0866110  29.7418460  25.4452770   4.1925800
  28.9953920  24.3083320   4.8574420  12.4803890  23.3994050   8.3173770
  11.8252730  23.1305690   7.6733470  13.3181840  23.2898530   7.8675750
  29.9859520  25.7306220   8.9308040  30.3568350  24.9473540   8.5244010
  30.6261450  26.4195320   8.7525340  26.9693280  27.1142800  14.3438360
  26.1553120  27.5439960  14.6064150  27.3767480  27.7261210  13.7307410
  25.4294330  18.1935340   2.5392260  25.8479210  18.0066320   1.6988920
  25.1230390  17.3414390   2.8495190  28.9284060  23.1059480   6.2368060
  28.5527660  22.3387410   5.8049350  28.1987180  23.4882180   6.7242990
  28.3183680  22.2531000  15.8707580  28.0869770  22.0243750  14.9705530
  28.5788230  23.1730550  15.8252470  11.6941970  20.6092980   4.2599100
  10.7906050  20.8723180   4.0850760  12.1782590  20.8804150   3.4799060
  28.2035020  21.3316970   9.5375300  28.7272500  20.8379620   8.9065470
  28.7894440  21.4667330  10.2822870  28.3824740  21.4156840  13.0594850
  27.4327450  21.3820380  13.1739840  28.5637750  22.3256950  12.8244620
  27.6934990  20.5890320   5.4767710  28.1894110  20.3561190   6.2616590
  27.4951060  19.7502160   5.0605350  13.5735530  14.9704040  11.1118750
  14.2211720  14.4201420  10.6713910  13.9937370  15.2247190  11.9334560
  29.1222150  19.2251270   8.0105390  29.0121430  19.0707310   8.9487660
  29.8829740  18.6972210   7.7680800  27.4687870  15.1645400  14.4688390
  28.1060090  15.7779540  14.8347580  27.6162760  15.2006060  13.5237620
  30.0850910  17.8269850   3.8768240  29.2902410  17.7614970   4.4061150
  30.2894190  18.7620490   3.8653590  27.0269330  31.8661400   7.8706630
  27.6228400  31.5445970   7.1941050  27.2847480  31.3933220   8.6619900
  13.3267530  15.1259710  13.8544070  12.9782350  15.5823530  14.6202250
  12.9955230  14.2316840  13.9366500  18.6337930  29.8538900  13.6206980
  18.3929290  30.1213460  12.7337500  19.5740570  30.0244630  13.6757840
  29.8942090  31.8733280  14.4217620  29.4000370  32.2702150  13.7044750
  29.2855380  31.2482490  14.8154900  13.9988170  14.6535910  17.1294840
  14.5471160  14.4723960  16.3660950  14.0643480  13.8630020  17.6651150
  14.7719930  31.2441560  15.1395040  14.1780250  31.1126260  15.8785080
  14.7643770  30.4079700  14.6737140  24.2174950  14.5373790  13.3425070
  23.3434790  14.8708900  13.1398000  24.1085700  14.0646970  14.1676940
  27.5781540  32.5156700  11.7004360  27.1184510  33.2672510  11.3262380
  26.9494000  31.7963170  11.6419160  14.4032160  28.6099940  14.0903080
  13.6766220  27.9905230  14.0229030  14.4641310  29.0040550  13.2201160
  18.0077260  30.8244940  10.8752490  18.5242280  30.2132300  10.3500750
  18.6574640  31.3273720  11.3663500  20.7472760  31.7153430  11.7021470
  21.0350570  31.4607730  10.8254480  21.2595980  31.1630790  12.2927040
  21.9649770  15.4543630  12.2817980  21.1821560  15.9289130  12.5614740
  21.6712700  14.5498460  12.1731160  26.5170840  16.1566730  10.3267070
  26.9578930  16.1011830   9.4788670  26.2478430  17.0724740  10.3977250
  28.3809410  15.7881970   8.3375890  28.3197810  14.8443190   8.1906910
  29.1601440  15.8962060   8.8829350  12.6862160  31.9274330   7.2999840
  12.5184200  31.2945010   7.9981730  11.8196670  32.1333730   6.9494030
  13.3090180  15.7591110   4.8031700  14.0669540  15.8719990   4.2295730
  12.8467350  16.5960310   4.7575130  19.8503990  17.8730380   7.7934010
  19.0378500  17.4987270   7.4529890  20.3545630  17.1175460   8.0955200
  24.3528970  14.5372830   9.0317080  24.9558340  15.1093040   9.5065600
  23.6121960  15.1012270   8.8090980  27.4963570  14.9394390   4.3057360
  27.6914200  15.8377840   4.5724790  26.7093440  14.7081470   4.7990310
  14.2924860  30.6207560   4.7449980  13.7672480  31.0015590   4.0411940
  14.2169440  31.2458330   5.4659690  15.6815330  16.2855160   3.3433670
  16.2108090  15.4984960   3.2141620  16.3143650  16.9646350   3.5769200
  17.8753170  16.0230300   6.3979060  17.2455910  15.3217610   6.5649190
  17.3358310  16.7834430   6.1812220  29.0490180  32.1795100   6.0663920
  29.2242370  31.4932840   5.4224840  28.3511750  32.7042150   5.6740590
  16.8917830  32.5689940   3.6199230  17.6236650  32.2849220   3.0723120
  17.1511500  32.3303220   4.5098610  16.0532620  28.6854670   3.6245560
  15.4241500  29.1539770   4.1731390  16.1680450  27.8403890   4.0591750
  24.6024190  14.7167860  19.4112020  24.4889640  15.0362470  20.3063540
  25.4193930  15.1180370  19.1149300  23.5082340   3.9616840  27.3233740
  23.4276390   3.0471450  27.0525450  23.0946760   4.4583910  26.6173450
  21.6400380   5.7395860  29.2043010  20.8642480   5.2596300  29.4941580
  22.2913310   5.0601510  29.0299170  15.6566210   6.0515670  30.0818770
  14.8251090   5.7964380  30.4815280  16.2647190   6.1226440  30.8176690
  25.6607810  10.1456050  27.9842140  25.1989340   9.3743290  28.3129310
  26.4733360  10.1722120  28.4894590  15.6367470  10.0855760  30.2776790
  15.9395510   9.1953500  30.0987010  16.3811060  10.6425980  30.0499040
  12.0291170   3.6123210  29.7500860  12.6007280   2.8445410  29.7504500
  12.0292710   3.9111970  28.8407470  21.8871120  12.4314060  27.6046130
  21.2682560  12.8871560  27.0340570  22.7422900  12.5865520  27.2035830
  21.0809370   8.4153050  29.2113170  21.0117650   7.4742990  29.0502300
  21.8429230   8.5054460  29.7835740  18.0827280   2.5635430  29.2324720
  18.5905500   3.0616400  29.8729740  18.6140520   1.7870630  29.0564080
  22.7534470   7.3153300  24.9978040  22.1351740   7.7802750  24.4340760
  23.2657720   8.0080780  25.4147550  17.6166230   6.8429170  31.6761640
  17.2835610   7.4698090  32.3182710  17.7932910   7.3691050  30.8963310
  16.8285330   8.8109970  33.4910820  17.4459330   9.4861050  33.2095270
  15.9678450   9.2197950  33.3998320  12.1217670   8.0009830  22.3717670
  11.7445650   8.4896930  21.6402570  12.3790740   8.6735110  23.0024200
  27.7462920  10.2749380  31.4065460  27.0626440  10.9448490  31.3982130
  28.2857210  10.4730030  30.6410320  25.2821660  12.1193510  30.1210640
  25.2948820  11.7155800  29.2532900  24.7296880  12.8940800  30.0172070
  26.5767080   8.8409730  25.2100810  26.4663410   7.8984060  25.3350230
  26.5735330   9.2025370  26.0963570  24.6807100   7.0223350  31.4493250
  25.0975890   6.8083460  30.6146710  25.4046920   7.2796140  32.0201870
  22.1187360   4.4675050  24.5663300  21.1916640   4.4012430  24.7951770
  22.2712180   5.4055180  24.4518540  28.6269200   5.4210570  31.5409490
  27.7987830   5.4903660  31.0659620  29.2219680   6.0064880  31.0725320
  26.1484650   6.0295350  25.0698550  25.5297070   5.6914900  24.4224850
  26.1309100   5.3855110  25.7777740  17.7244000   4.9939790  27.3483030
  17.3201000   4.2817040  26.8528930  17.8107120   4.6493030  28.2371070
  18.1925700   8.6807350  29.5122240  17.8953990   8.0752820  28.8330020
  19.1425520   8.7184660  29.4011600  16.4372620   1.7683000  31.1282070
  16.9887210   1.8778340  30.3535320  16.9516130   2.1420600  31.8437300
  26.2811310  12.2539220  33.1745340  25.8041870  13.0611410  32.9817950
  25.5973100  11.6017550  33.3271550  17.2844130   8.4189040  36.1630040
  16.3872660   8.6429010  36.4103440  17.3097000   8.5423980  35.2141440
  24.3249350   5.2682160  22.0771300  24.7642630   4.4304590  21.9309120
  25.0377770   5.9011560  22.1635440  16.1115350   5.2902360  34.7387410
  15.9723120   6.1625160  35.1074810  15.2296710   4.9475170  34.5935350
  22.4344730  10.2078230  26.0452540  22.8740640  10.9502560  25.6307930
  22.3731620  10.4504800  26.9691500  17.9095700  11.2324060  36.9472560
  17.8811130  11.6367010  36.0800990  17.7460670  10.3034420  36.7844160
  14.4248630   3.8884770  24.8489680  14.3046230   4.6146860  24.2370950
  14.1149520   3.1187680  24.3717590  12.0634000   7.0599910  30.6558320
  12.1414420   7.1948680  29.7114040  12.6775680   6.3515800  30.8486440
  13.3081630   8.7600100  27.0664500  12.9009710   8.9014690  26.2118100
  14.1994640   8.4760260  26.8635710  29.2643770   9.2064010  35.4036740
  29.3906830   8.9675890  34.4853920  29.3065150   8.3748550  35.8758820
  23.1260510  12.9092010  33.9731550  23.6405180  12.8200020  34.7753980
  22.2829590  13.2551710  34.2659460  25.1014910  13.1947350  23.4015550
  24.9416050  12.9050290  24.2997380  24.9361620  12.4187480  22.8660780
  24.8041040  10.7034910  21.9613550  24.1106200  10.7012200  21.3015830
  25.5463900  10.2794230  21.5307720  24.3690970  12.3297620  26.0362040
  24.8247920  11.5487000  26.3500660  24.7083490  13.0404440  26.5803220
  12.1193520   8.1014080  33.1952780  12.2824560   7.6319440  32.3772150
  12.5845970   7.5937640  33.8601620  23.2736320   2.8199060  37.0644120
  23.5989730   1.9862810  36.7246350  24.0616650   3.3427580  37.2122450
  16.6826510   2.3553410  25.9594600  16.4567430   2.1390580  26.8641220
  15.9019040   2.7881870  25.6140570  23.9124270   2.3616780  24.5585250
  23.3133160   3.0852580  24.3748870  24.4603880   2.2993560  23.7761700
  19.1225720   3.2538990  36.6254870  19.0269320   2.3133720  36.4755270
  19.9657700   3.4754060  36.2302940  23.1044280   3.5886070  30.6839310
  22.3725400   4.0972880  31.0329410  22.7068620   2.7716050  30.3828090
  18.6163320   3.5753490  21.4781860  18.0480220   3.1271740  20.8517770
  19.3252320   3.9346270  20.9447010  13.6932500   7.4765510  35.3548590
  13.3087290   6.8359180  35.9531550  14.0044690   8.1801630  35.9243320
  19.8429640   4.3242050  30.8357210  20.2099770   3.8500620  31.5818550
  19.6534700   5.1983620  31.1765550  17.6329010   3.3650690  33.1541420
  17.3286080   4.2442670  33.3791780  18.5875470   3.4250480  33.1898860
  16.1610800   7.5711680  23.7508270  15.3873060   7.0309300  23.5906990
  16.8905430   7.0518290  23.4126030  26.9198780   6.5677040  29.5434660
  27.6397900   7.0632330  29.1530770  26.7180600   5.8894930  28.8988530
  22.3017580   6.6386100  35.4303660  22.2354890   5.7181770  35.1761250
  21.6722720   6.7361540  36.1448300  16.2048200   7.2392060  27.3887080
  16.7226870   6.4360320  27.3343970  15.7532220   7.1771200  28.2303910
  21.0917700   8.5058340  22.6614380  21.4333400   9.2500570  22.1657700
  20.2630410   8.8189460  23.0239210  13.6892740   4.2053430  34.3012780
  13.3307680   4.8707280  34.8886120  13.3947300   3.3736980  34.6725400
  16.8905860   4.6637670  37.1852330  16.5906000   4.8094850  36.2880150
  17.6617100   4.1042960  37.0925720  22.2334310   9.4606670  35.1807460
  22.2478850   8.5287630  34.9626370  21.5259410   9.5466430  35.8197230
  27.3671380   3.6446490  21.4506070  27.2835100   4.0760710  20.6002510
  28.0865570   4.1044840  21.8832890  28.4445520   6.1014010  34.5276040
  27.7193710   6.6942790  34.3305430  28.9720980   6.0937550  33.7289410
  28.3958630  10.4988750  24.1788200  27.7534790   9.8444370  24.4531920
  28.0089290  10.9043840  23.4028870  23.9745110   7.8274180  28.0259890
  24.3268930   7.2302310  27.3661260  23.0907440   7.5018410  28.1968140
  20.0608390   8.5871870  25.4330300  20.7479520   9.1341080  25.8137890
  19.2740810   9.1312600  25.4679910  12.2000790   4.2044690  20.9247380
  13.0695640   4.4869490  21.2083300  11.7091110   5.0180560  20.8096190
  19.3635600   5.5917900  25.0455660  19.8198380   6.4023150  25.2715850
  19.0123810   5.2741040  25.8774150  21.6668210  11.1024240  32.2747960
  22.3110430  11.3083620  32.9521380  22.0297650  10.3412640  31.8218810
  22.9400290   9.1056590  30.9925410  23.5822520   8.4049750  31.1057580
  23.4649640   9.8855030  30.8122300  26.7856010   9.3905210  20.7164550
  26.5593590   8.6735650  21.3089190  26.3952210   9.1417650  19.8786300
  24.7137910   9.9051490  34.1961470  25.0494150  10.4918180  34.8739390
  23.7938250   9.7744200  34.4259260  12.5672040  13.4172070  21.4909010
  12.9269680  14.0161410  20.8366280  12.4264380  13.9631960  22.2644040
  26.3672260   7.3077150  22.3778710  26.0793960   7.7689840  23.1656590
  27.1624430   6.8474920  22.6462930  12.5513900  11.6826930  35.9651410
  12.6605020  10.7421670  35.8246800  11.8994460  11.9481680  35.3165140
  14.1847300   6.0218160  23.0529440  13.5775250   6.7617060  23.0624740
  14.6596650   6.1117520  22.2267640  20.7182080   2.8408570  32.9524300
  21.2167330   3.3154390  33.6176150  20.8605030   1.9172090  33.1594330
  26.2170950   4.3009710  27.2414050  25.2761090   4.3159940  27.4161740
  26.5315020   3.5145670  27.6874350  16.1952590   5.9829310  20.8018010
  16.9615860   5.8710670  21.3643440  16.2727280   5.2867280  20.1494780
  14.8899350   3.4154380  21.4850900  14.9702940   2.4681890  21.5968300
  15.7819100   3.7461260  21.5911560  28.2196530  11.4718560  28.9168310
  28.3443950  12.2949730  29.3892120  29.0862090  11.2609290  28.5692460
  15.6914060  13.5649770  28.5885440  16.4276540  13.0165230  28.8594010
  16.0754980  14.4305780  28.4491430  12.5759540   9.6323340  24.4626950
  11.6499320   9.8744480  24.4532360  13.0415970  10.4597600  24.3411700
  24.9637340  12.5856000  36.3355840  25.9159090  12.5014020  36.2856080
  24.8165560  13.2497710  37.0089630  27.8546540  11.9650210  21.8347750
  27.5688050  11.5515350  21.0201930  27.6566090  12.8937920  21.7148270
  12.4170150   5.2369300  36.7207070  12.9209170   4.6576580  37.2923300
  11.6777570   5.5209530  37.2583440  19.3193770   7.9583490  20.2753360
  19.2144410   7.3435840  21.0014740  19.1517990   7.4349380  19.4916370
  19.4708090   6.6440290  36.2542590  18.7053760   7.2125290  36.1697260
  19.6524050   6.3516500  35.3610820  22.5596500   7.0203520  20.8795350
  22.0106600   7.4672820  21.5238090  23.1815760   6.5152770  21.4033020
  26.6131440   8.3745620  36.8117610  27.3540910   8.7121380  36.3085070
  25.8504120   8.5437680  36.2587380  18.2271620   5.9794440  22.7760650
  18.6488040   5.8134310  23.6192040  18.3522460   5.1694670  22.2815790
  20.7399260   5.0032050  20.0237750  21.2604920   4.2881070  19.6578900
  21.3867660   5.6417920  20.3238260  25.2877100   6.4260450  35.3472820
  25.7018120   6.5805530  36.1963240  24.3528100   6.5515670  35.5098600
  25.7599270   3.7656610  37.3511970  26.3420040   3.0108930  37.2632450
  25.9361040   4.2964050  36.5743450  20.0492330   6.3780930  33.3168750
  20.4680440   7.2213660  33.1444990  19.1300960   6.5152970  33.0875530
  22.3856230   4.1097110  34.7006590  22.5052440   3.5138250  35.4401430
  23.2450230   4.1466800  34.2807890  24.7244130   4.6634300  33.2769100
  24.1979350   5.1876920  32.6734240  25.0675470   5.2961690  33.9078830
  17.8999750  12.6833940  34.4326480  17.3620840  13.4080000  34.1135180
  18.1533710  12.2064280  33.6423820  20.7561960  13.9185150  34.6913130
  20.6820660  14.8220290  34.9985500  19.8540800  13.5997050  34.6635200
  14.9443450   8.4570710  20.5426490  15.3818320   9.0000380  21.1984070
  15.4291180   7.6317660  20.5522830  12.1589250  11.2459740  27.9946750
  12.4892260  10.3780800  27.7625390  12.5880250  11.4518260  28.8251710
  16.7551170   9.5768750  25.6548720  16.4546710   9.4533720  26.5552630
  16.6488660   8.7177340  25.2464450  12.6479460  12.1130330  30.7328380
  12.2110450  12.2931130  31.5652530  13.2157140  12.8704950  30.5910100
  28.2841640  11.6147330  35.0205690  27.6843630  11.6739890  34.2769610
  28.4135540  10.6752310  35.1502540  29.5243090   9.3565150  20.3575400
  28.6936050   9.4241800  20.8282630  29.7014920  10.2469270  20.0542260
  28.9799550   6.1012630  22.8609600  29.7418460   6.6709280  22.9669290
  28.9953920   5.5339830  23.6317910  12.4803890   4.6250560  27.0917260
  11.8252730   4.3562200  26.4476960  13.3181840   4.5155040  26.6419240
  29.9859520   6.9562730  27.7051530  30.3568350   6.1730050  27.2987500
  30.6261450   7.6451830  27.5268830  26.9693280   8.3399310  33.1181850
  26.1553120   8.7696470  33.3807640  27.3767480   8.9517720  32.5050900
  29.0318720   6.3947000  20.0182120  29.3067560   7.3025880  19.8901340
  28.8429460   6.3309530  20.9544110  28.9284060   4.3315990  25.0111550
  28.5527660   3.5643920  24.5792840  28.1987180   4.7138690  25.4986480
  13.5179820   5.0103130  31.6320600  13.8852860   4.9230530  32.5116620
  12.9490640   4.2469680  31.5327460  28.3183680   3.4787510  34.6451070
  28.0869770   3.2500260  33.7449020  28.5788230   4.3987060  34.5995960
  13.0695820   1.9212220  35.5379020  12.1751870   1.8878980  35.8772730
  13.6093370   2.1199010  36.3030270  11.6941970   1.8349490  23.0342590
  10.7906050   2.0979690  22.8594250  12.1782590   2.1060660  22.2542550
  28.2035020   2.5573480  28.3118790  28.7272500   2.0636130  27.6808960
  28.7894440   2.6923840  29.0566360  28.3824740   2.6413350  31.8338340
  27.4327450   2.6076890  31.9483330  28.5637750   3.5513460  31.5988110
  27.0269330  13.0917910  26.6450120  27.6228400  12.7702480  25.9684540
  27.2847480  12.6189730  27.4363390  18.6337930  11.0795410  32.3950470
  18.3929290  11.3469970  31.5080990  19.5740570  11.2501140  32.4501330
  29.8942090  13.0989790  33.1961110  29.4000370  13.4958660  32.4788240
  29.2855380  12.4739000  33.5898390  14.7719930  12.4698070  33.9138530
  14.1780250  12.3382770  34.6528570  14.7643770  11.6336210  33.4480630
  27.5781540  13.7413210  30.4747850  27.1184510  14.4929020  30.1005870
  26.9494000  13.0219680  30.4162650  14.4032160   9.8356450  32.8646570
  13.6766220   9.2161740  32.7972520  14.4641310  10.2297060  31.9944650
  18.0077260  12.0501450  29.6495980  18.5242280  11.4388810  29.1244240
  18.6574640  12.5530230  30.1406990  20.7472760  12.9409940  30.4764960
  21.0350570  12.6864240  29.5997970  21.2595980  12.3887300  31.0670530
  12.6862160  13.1530840  26.0743330  12.5184200  12.5201520  26.7725220
  11.8196670  13.3590240  25.7237520  14.2924860  11.8464070  23.5193470
  13.7672480  12.2272100  22.8155430  14.2169440  12.4714840  24.2403180
  29.0490180  13.4051610  24.8407410  29.2242370  12.7189350  24.1968330
  28.3511750  13.9298660  24.4484080  16.0532620   9.9111180  22.3989050
  15.4241500  10.3796280  22.9474880  16.1680450   9.0660400  22.8335240
  23.5082340   3.9616840   8.5490250  23.4276390   3.0471450   8.2781960
  23.0946760   4.4583910   7.8429960  21.6400380   5.7395860  10.4299520
  20.8642480   5.2596300  10.7198090  22.2913310   5.0601510  10.2555680
  15.6566210   6.0515670  11.3075280  14.8251090   5.7964380  11.7071790
  16.2647190   6.1226440  12.0433200  25.6607810  10.1456050   9.2098650
  25.1989340   9.3743290   9.5385820  26.4733360  10.1722120   9.7151100
  15.6367470  10.0855760  11.5033300  15.9395510   9.1953500  11.3243520
  16.3811060  10.6425980  11.2755550  12.0291170   3.6123210  10.9757370
  12.6007280   2.8445410  10.9761010  12.0292710   3.9111970  10.0663980
  21.8871120  12.4314060   8.8302640  21.2682560  12.8871560   8.2597080
  22.7422900  12.5865520   8.4292340  21.0809370   8.4153050  10.4369680
  21.0117650   7.4742990  10.2758810  21.8429230   8.5054460  11.0092250
  18.0827280   2.5635430  10.4581230  18.5905500   3.0616400  11.0986250
  18.6140520   1.7870630  10.2820590  22.7534470   7.3153300   6.2234550
  22.1351740   7.7802750   5.6597270  23.2657720   8.0080780   6.6404060
  17.6166230   6.8429170  12.9018150  17.2835610   7.4698090  13.5439220
  17.7932910   7.3691050  12.1219820  16.8285330   8.8109970  14.7167330
  17.4459330   9.4861050  14.4351780  15.9678450   9.2197950  14.6254830
  12.1217670   8.0009830   3.5974180  11.7445650   8.4896930   2.8659080
  12.3790740   8.6735110   4.2280710  27.7462920  10.2749380  12.6321970
  27.0626440  10.9448490  12.6238640  28.2857210  10.4730030  11.8666830
  25.2821660  12.1193510  11.3467150  25.2948820  11.7155800  10.4789410
  24.7296880  12.8940800  11.2428580  26.5767080   8.8409730   6.4357320
  26.4663410   7.8984060   6.5606740  26.5735330   9.2025370   7.3220080
  24.6807100   7.0223350  12.6749760  25.0975890   6.8083460  11.8403220
  25.4046920   7.2796140  13.2458380  22.1187360   4.4675050   5.7919810
  21.1916640   4.4012430   6.0208280  22.2712180   5.4055180   5.6775050
  28.6269200   5.4210570  12.7666000  27.7987830   5.4903660  12.2916130
  29.2219680   6.0064880  12.2981830  26.1484650   6.0295350   6.2955060
  25.5297070   5.6914900   5.6481360  26.1309100   5.3855110   7.0034250
  17.7244000   4.9939790   8.5739540  17.3201000   4.2817040   8.0785440
  17.8107120   4.6493030   9.4627580  18.1925700   8.6807350  10.7378750
  17.8953990   8.0752820  10.0586530  19.1425520   8.7184660  10.6268110
  16.4372620   1.7683000  12.3538580  16.9887210   1.8778340  11.5791830
  16.9516130   2.1420600  13.0693810  26.2811310  12.2539220  14.4001850
  25.8041870  13.0611410  14.2074460  25.5973100  11.6017550  14.5528060
  17.2844130   8.4189040  17.3886550  16.3872660   8.6429010  17.6359950
  17.3097000   8.5423980  16.4397950  24.3249350   5.2682160   3.3027810
  24.7642630   4.4304590   3.1565630  25.0377770   5.9011560   3.3891950
  16.1115350   5.2902360  15.9643920  15.9723120   6.1625160  16.3331320
  15.2296710   4.9475170  15.8191860  22.4344730  10.2078230   7.2709050
  22.8740640  10.9502560   6.8564440  22.3731620  10.4504800   8.1948010
  17.9095700  11.2324060  18.1729070  17.8811130  11.6367010  17.3057500
  17.7460670  10.3034420  18.0100670  14.4248630   3.8884770   6.0746190
  14.3046230   4.6146860   5.4627460  14.1149520   3.1187680   5.5974100
  29.8610520  12.0151160  19.4693240  30.3370240  12.4934050  20.1482320
  30.4817680  11.9468650  18.7438740  12.0634000   7.0599910  11.8814830
  12.1414420   7.1948680  10.9370550  12.6775680   6.3515800  12.0742950
  13.3081630   8.7600100   8.2921010  12.9009710   8.9014690   7.4374610
  14.1994640   8.4760260   8.0892220  29.2643770   9.2064010  16.6293250
  29.3906830   8.9675890  15.7110430  29.3065150   8.3748550  17.1015330
  23.1260510  12.9092010  15.1988060  23.6405180  12.8200020  16.0010490
  22.2829590  13.2551710  15.4915970  25.1014910  13.1947350   4.6272060
  24.9416050  12.9050290   5.5253890  24.9361620  12.4187480   4.0917290
  17.5803290  12.9745880   6.4043680  17.4045770  12.0581420   6.1911480
  16.7259030  13.3333170   6.6441480  24.8041040  10.7034910   3.1870060
  24.1106200  10.7012200   2.5272340  25.5463900  10.2794230   2.7564230
  24.3690970  12.3297620   7.2618550  24.8247920  11.5487000   7.5757170
  24.7083490  13.0404440   7.8059730  12.1193520   8.1014080  14.4209290
  12.2824560   7.6319440  13.6028660  12.5845970   7.5937640  15.0858130
  23.2736320   2.8199060  18.2900630  23.5989730   1.9862810  17.9502860
  24.0616650   3.3427580  18.4378960  16.6826510   2.3553410   7.1851110
  16.4567430   2.1390580   8.0897730  15.9019040   2.7881870   6.8397080
  23.9124270   2.3616780   5.7841760  23.3133160   3.0852580   5.6005380
  24.4603880   2.2993560   5.0018210  19.1225720   3.2538990  17.8511380
  19.0269320   2.3133720  17.7011780  19.9657700   3.4754060  17.4559450
  23.1044280   3.5886070  11.9095820  22.3725400   4.0972880  12.2585920
  22.7068620   2.7716050  11.6084600  18.6163320   3.5753490   2.7038370
  18.0480220   3.1271740   2.0774280  19.3252320   3.9346270   2.1703520
  13.6932500   7.4765510  16.5805100  13.3087290   6.8359180  17.1788060
  14.0044690   8.1801630  17.1499830  19.8429640   4.3242050  12.0613720
  20.2099770   3.8500620  12.8075060  19.6534700   5.1983620  12.4022060
  17.6329010   3.3650690  14.3797930  17.3286080   4.2442670  14.6048290
  18.5875470   3.4250480  14.4155370  16.1610800   7.5711680   4.9764780
  15.3873060   7.0309300   4.8163500  16.8905430   7.0518290   4.6382540
  26.9198780   6.5677040  10.7691170  27.6397900   7.0632330  10.3787280
  26.7180600   5.8894930  10.1245040  22.3017580   6.6386100  16.6560170
  22.2354890   5.7181770  16.4017760  21.6722720   6.7361540  17.3704810
  16.2048200   7.2392060   8.6143590  16.7226870   6.4360320   8.5600480
  15.7532220   7.1771200   9.4560420  21.0917700   8.5058340   3.8870890
  21.4333400   9.2500570   3.3914210  20.2630410   8.8189460   4.2495720
  13.6892740   4.2053430  15.5269290  13.3307680   4.8707280  16.1142630
  13.3947300   3.3736980  15.8981910  16.8905860   4.6637670  18.4108840
  16.5906000   4.8094850  17.5136660  17.6617100   4.1042960  18.3182230
  22.2334310   9.4606670  16.4063970  22.2478850   8.5287630  16.1882880
  21.5259410   9.5466430  17.0453740  27.3671380   3.6446490   2.6762580
  27.2835100   4.0760710   1.8259020  28.0865570   4.1044840   3.1089400
  28.4445520   6.1014010  15.7532550  27.7193710   6.6942790  15.5561940
  28.9720980   6.0937550  14.9545920  28.3958630  10.4988750   5.4044710
  27.7534790   9.8444370   5.6788430  28.0089290  10.9043840   4.6285380
  23.9745110   7.8274180   9.2516400  24.3268930   7.2302310   8.5917770
  23.0907440   7.5018410   9.4224650  20.0608390   8.5871870   6.6586810
  20.7479520   9.1341080   7.0394400  19.2740810   9.1312600   6.6936420
  12.2000790   4.2044690   2.1503890  13.0695640   4.4869490   2.4339810
  11.7091110   5.0180560   2.0352700  19.3635600   5.5917900   6.2712170
  19.8198380   6.4023150   6.4972360  19.0123810   5.2741040   7.1030660
  21.6668210  11.1024240  13.5004470  22.3110430  11.3083620  14.1777890
  22.0297650  10.3412640  13.0475320  22.9400290   9.1056590  12.2181920
  23.5822520   8.4049750  12.3314090  23.4649640   9.8855030  12.0378810
  24.7137910   9.9051490  15.4217980  25.0494150  10.4918180  16.0995900
  23.7938250   9.7744200  15.6515770  12.5672040  13.4172070   2.7165520
  12.9269680  14.0161410   2.0622790  12.4264380  13.9631960   3.4900550
  26.3672260   7.3077150   3.6035220  26.0793960   7.7689840   4.3913100
  27.1624430   6.8474920   3.8719440  12.5513900  11.6826930  17.1907920
  12.6605020  10.7421670  17.0503310  11.8994460  11.9481680  16.5421650
  20.5426490   9.9542820  18.5906040  20.2223360   9.2352060  19.1351730
  19.8684850  10.6297890  18.6642100  18.5840660  10.8003270   3.5339190
  18.5750760  11.5332960   2.9183700  17.6639020  10.5534850   3.6266150
  14.1847300   6.0218160   4.2785950  13.5775250   6.7617060   4.2881250
  14.6596650   6.1117520   3.4524150  20.7182080   2.8408570  14.1780810
  21.2167330   3.3154390  14.8432660  20.8605030   1.9172090  14.3850840
  20.2118370  13.3817830   6.8912050  20.4659870  13.3439220   5.9691420
  19.2630850  13.2551160   6.8840300  26.2170950   4.3009710   8.4670560
  25.2761090   4.3159940   8.6418250  26.5315020   3.5145670   8.9130860
  14.8899350   3.4154380   2.7107410  14.9702940   2.4681890   2.8224810
  15.7819100   3.7461260   2.8168070  28.2196530  11.4718560  10.1424820
  28.3443950  12.2949730  10.6148630  29.0862090  11.2609290   9.7948970
  15.6914060  13.5649770   9.8141950  16.4276540  13.0165230  10.0850520
  16.0754980  14.4305780   9.6747940  12.5759540   9.6323340   5.6883460
  11.6499320   9.8744480   5.6788870  13.0415970  10.4597600   5.5668210
  14.6972340  12.7495840  19.0027530  15.4985070  13.0707890  19.4162930
  14.1824160  12.3891420  19.7247440  23.5336970   8.8575710  18.9502940
  22.9275130   8.8807310  18.2098690  23.2291080   8.1258750  19.4870190
  24.9637340  12.5856000  17.5612350  25.9159090  12.5014020  17.5112590
  24.8165560  13.2497710  18.2346140  27.8546540  11.9650210   3.0604260
  27.5688050  11.5515350   2.2458440  27.6566090  12.8937920   2.9404780
  12.4170150   5.2369300  17.9463580  12.9209170   4.6576580  18.5179810
  11.6777570   5.5209530  18.4839950  19.4708090   6.6440290  17.4799100
  18.7053760   7.2125290  17.3953770  19.6524050   6.3516500  16.5867330
  22.5596500   7.0203520   2.1051860  22.0106600   7.4672820   2.7494600
  23.1815760   6.5152770   2.6289530  26.6131440   8.3745620  18.0374120
  27.3540910   8.7121380  17.5341580  25.8504120   8.5437680  17.4843890
  14.4493230   3.3798890  18.8413650  14.4898570   3.0812760  19.7498880
  15.3038730   3.7806500  18.6821170  18.2271620   5.9794440   4.0017160
  18.6488040   5.8134310   4.8448550  18.3522460   5.1694670   3.5072300
  25.2877100   6.4260450  16.5729330  25.7018120   6.5805530  17.4219750
  24.3528100   6.5515670  16.7355110  25.7599270   3.7656610  18.5768480
  26.3420040   3.0108930  18.4888960  25.9361040   4.2964050  17.7999960
  20.0492330   6.3780930  14.5425260  20.4680440   7.2213660  14.3701500
  19.1300960   6.5152970  14.3132040  22.3856230   4.1097110  15.9263100
  22.5052440   3.5138250  16.6657940  23.2450230   4.1466800  15.5064400
  24.7244130   4.6634300  14.5025610  24.1979350   5.1876920  13.8990750
  25.0675470   5.2961690  15.1335340  17.8999750  12.6833940  15.6582990
  17.3620840  13.4080000  15.3391690  18.1533710  12.2064280  14.8680330
  21.3047290  13.0843660   3.5396000  22.1998080  13.4228630   3.5614760
  21.3364920  12.3623070   2.9120280  14.9443450   8.4570710   1.7683000
  15.3818320   9.0000380   2.4240580  15.4291180   7.6317660   1.7779340
  12.1589250  11.2459740   9.2203260  12.4892260  10.3780800   8.9881900
  12.5880250  11.4518260  10.0508220  16.7551170   9.5768750   6.8805230
  16.4546710   9.4533720   7.7809140  16.6488660   8.7177340   6.4720960
  12.6479460  12.1130330  11.9584890  12.2110450  12.2931130  12.7909040
  13.2157140  12.8704950  11.8166610  28.2841640  11.6147330  16.2462200
  27.6843630  11.6739890  15.5026120  28.4135540  10.6752310  16.3759050
  28.9799550   6.1012630   4.0866110  29.7418460   6.6709280   4.1925800
  28.9953920   5.5339830   4.8574420  12.4803890   4.6250560   8.3173770
  11.8252730   4.3562200   7.6733470  13.3181840   4.5155040   7.8675750
  29.9859520   6.9562730   8.9308040  30.3568350   6.1730050   8.5244010
  30.6261450   7.6451830   8.7525340  26.9693280   8.3399310  14.3438360
  26.1553120   8.7696470  14.6064150  27.3767480   8.9517720  13.7307410
  28.9284060   4.3315990   6.2368060  28.5527660   3.5643920   5.8049350
  28.1987180   4.7138690   6.7242990  13.5179820   5.0103130  12.8577110
  13.8852860   4.9230530  13.7373130  12.9490640   4.2469680  12.7583970
  28.3183680   3.4787510  15.8707580  28.0869770   3.2500260  14.9705530
  28.5788230   4.3987060  15.8252470  13.0695820   1.9212220  16.7635530
  12.1751870   1.8878980  17.1029240  13.6093370   2.1199010  17.5286780
  11.6941970   1.8349490   4.2599100  10.7906050   2.0979690   4.0850760
  12.1782590   2.1060660   3.4799060  28.2035020   2.5573480   9.5375300
  28.7272500   2.0636130   8.9065470  28.7894440   2.6923840  10.2822870
  28.3824740   2.6413350  13.0594850  27.4327450   2.6076890  13.1739840
  28.5637750   3.5513460  12.8244620  27.0269330  13.0917910   7.8706630
  27.6228400  12.7702480   7.1941050  27.2847480  12.6189730   8.6619900
  14.9331900   9.5235820  18.0197260  14.8901530   9.1528730  18.9011720
  15.0642910  10.4613390  18.1599080  18.6337930  11.0795410  13.6206980
  18.3929290  11.3469970  12.7337500  19.5740570  11.2501140  13.6757840
  29.8942090  13.0989790  14.4217620  29.4000370  13.4958660  13.7044750
  29.2855380  12.4739000  14.8154900  14.7719930  12.4698070  15.1395040
  14.1780250  12.3382770  15.8785080  14.7643770  11.6336210  14.6737140
  27.5781540  13.7413210  11.7004360  27.1184510  14.4929020  11.3262380
  26.9494000  13.0219680  11.6419160  14.4032160   9.8356450  14.0903080
  13.6766220   9.2161740  14.0229030  14.4641310  10.2297060  13.2201160
  18.0077260  12.0501450  10.8752490  18.5242280  11.4388810  10.3500750
  18.6574640  12.5530230  11.3663500  20.7472760  12.9409940  11.7021470
  21.0350570  12.6864240  10.8254480  21.2595980  12.3887300  12.2927040
  12.6862160  13.1530840   7.2999840  12.5184200  12.5201520   7.9981730
  11.8196670  13.3590240   6.9494030  14.2924860  11.8464070   4.7449980
  13.7672480  12.2272100   4.0411940  14.2169440  12.4714840   5.4659690
  29.0490180  13.4051610   6.0663920  29.2242370  12.7189350   5.4224840
  28.3511750  13.9298660   5.6740590  16.8917830  13.7946450   3.6199230
  17.6236650  13.5105730   3.0723120  17.1511500  13.5559730   4.5098610
  16.0532620   9.9111180   3.6245560  15.4241500  10.3796280   4.1731390
  16.1680450   9.0660400   4.0591750  27.3822680  13.0895900  18.8930710
  28.1748000  12.5945130  18.6856670  27.6755830  13.7686040  19.5006320
   4.7338850  41.5103820  27.3233740   4.6532900  40.5958430  27.0525450
   4.3203270  42.0070890  26.6173450   2.8656890  43.2882840  29.2043010
   2.0898990  42.8083280  29.4941580   3.5169820  42.6088490  29.0299170
   3.3371050  38.7710410  29.4382100   3.7135870  37.8982290  29.3255770
   3.2390560  39.1069110  28.5472540   7.1195170  36.2660850  26.3710440
   7.9404790  35.7757420  26.4135920   7.1529250  36.8558510  27.1242280
  11.4094720  38.2827600  32.9354070  10.7046890  38.6709310  32.4169180
  11.6752640  38.9777890  33.5375000   7.3556650  38.2061230  29.1437980
   6.6512220  38.4946120  29.7241090   7.7168810  39.0161340  28.7837540
  10.4243570  37.6516020  29.5347190   9.4768480  37.6855000  29.6662620
  10.7493560  38.4654970  29.9196550   5.9063610  44.5710330  31.4493250
   6.3232400  44.3570440  30.6146710   6.6303430  44.8283120  32.0201870
   3.3443870  42.0162030  24.5663300   2.4173150  41.9499410  24.7951770
   3.4968690  42.9542160  24.4518540   3.3312950  38.2879030  21.5630460
   2.3916620  38.4492990  21.6482920   3.6496210  39.0064710  21.0166450
   9.8525710  42.9697550  31.5409490   9.0244340  43.0390640  31.0659620
  10.4476190  43.5551860  31.0725320   7.3741160  43.5782330  25.0698550
   6.7553580  43.2401880  24.4224850   7.3565610  42.9342090  25.7777740
   6.8167720  39.7566870  32.4864360   6.4038900  40.5820580  32.7404350
   6.0843670  39.1711910  32.2940720   5.5505860  42.8169140  22.0771300
   5.9899140  41.9791570  21.9309120   6.2634280  43.4498540  22.1635440
   9.1323000  34.0711950  20.3912340   8.8195660  34.1638780  21.2911410
   9.8935470  34.6492980  20.3409770  10.3424290  38.8083450  36.3686480
   9.7268560  39.3163120  35.8401940  10.0220710  37.9081780  36.3112420
   2.4038610  37.6475340  33.8348670   1.9417980  37.8558360  34.6468610
   2.0016720  36.8334690  33.5319340   7.4043120  38.8684290  34.9645330
   6.5536710  38.5690040  35.2854400   7.2444910  39.1126300  34.0529150
   4.4992830  40.3686040  37.0644120   4.8246240  39.5349790  36.7246350
   5.2873160  40.8914560  37.2122450   5.1380780  39.9103760  24.5585250
   4.5389670  40.6339560  24.3748870   5.6860390  39.8480540  23.7761700
   3.7445650  38.5467300  26.5888530   4.1375220  38.8639500  25.7757220
   4.1062500  37.6679180  26.7033050   4.3300790  41.1373050  30.6839310
   3.5981910  41.6459860  31.0329410   3.9325130  40.3203030  30.3828090
   4.7926700  36.5906730  30.0962250   4.8099440  37.0415380  30.9404100
   4.5442280  35.6912370  30.3095690   8.2197450  34.0038910  35.9348630
   8.5443220  33.2728570  36.4606610   8.2553960  33.6852550  35.0329620
   8.1455290  44.1164020  29.5434660   8.8654410  44.6119310  29.1530770
   7.9437110  43.4381910  28.8988530   3.6065230  35.5101980  23.6864050
   2.7929840  35.0115150  23.6109360   3.4127180  36.3500230  23.2700400
   3.5274090  44.1873080  35.4303660   3.4611400  43.2668750  35.1761250
   2.8979230  44.2848520  36.1448300   6.3213620  39.8821630  21.9826210
   7.2093240  40.1938860  21.8077550   6.2918710  39.0093880  21.5906790
   8.5927890  41.1933470  21.4506070   8.5091610  41.6247690  20.6002510
   9.3122080  41.6531820  21.8832890   9.6702030  43.6500990  34.5276040
   8.9450220  44.2429770  34.3305430  10.1977490  43.6424530  33.7289410
   5.2001620  45.3761160  28.0259890   5.5525440  44.7789290  27.3661260
   4.3163950  45.0505390  28.1968140   7.5928770  44.8564130  22.3778710
   7.3050470  45.3176820  23.1656590   8.3880940  44.3961900  22.6462930
   4.9836600  37.7355960  32.7286330   5.3517420  36.9151170  33.0565900
   4.1234800  37.7957850  33.1441980   8.3498630  36.6912900  23.5373890
   7.7211790  36.7958570  22.8232120   7.8550550  36.9109680  24.3267770
   1.9438590  40.3895550  32.9524300   2.4423840  40.8641370  33.6176150
   2.0861540  39.4659070  33.1594330   4.3498090  35.6949510  26.3927560
   4.2265870  35.7135640  25.4437070   5.2982650  35.7428450  26.5125960
   9.1505450  36.6063510  33.7952690   8.6479050  37.3468910  34.1346500
   9.9662110  36.9947510  33.4789480   7.4427460  41.8496690  27.2414050
   6.5017600  41.8646920  27.4161740   7.7571530  41.0632650  27.6874350
   3.7853010  44.5690500  20.8795350   3.2363110  45.0159800  21.5238090
   4.4072270  44.0639750  21.4033020   1.9655770  42.5519030  20.0237750
   2.4861430  41.8368050  19.6578900   2.6124170  43.1904900  20.3238260
   6.5133610  43.9747430  35.3472820   6.9274630  44.1292510  36.1963240
   5.5784610  44.1002650  35.5098600   6.9855780  41.3143590  37.3511970
   7.5676550  40.5595910  37.2632450   7.1617550  41.8451030  36.5743450
   3.6112740  41.6584090  34.7006590   3.7308950  41.0625230  35.4401430
   4.4706740  41.6953780  34.2807890   5.9500640  42.2121280  33.2769100
   5.4235860  42.7363900  32.6734240   6.2931980  42.8448670  33.9078830
   5.1974940  37.8171250  36.1915430   4.5090460  37.1552790  36.1265420
   5.9180960  37.3709520  36.6363890   5.8275340  34.4122880  22.2505690
   6.1077630  33.5690780  22.6065110   5.0541070  34.6445990  22.7644440
  10.2056060  43.6499610  22.8609600  10.9674970  44.2196260  22.9669290
  10.2210430  43.0826810  23.6317910  11.2116030  44.5049710  27.7051530
  11.5824860  43.7217030  27.2987500  11.8517960  45.1938810  27.5268830
  10.2575230  43.9433980  20.0182120  10.5324070  44.8512860  19.8901340
  10.0685970  43.8796510  20.9544110   6.6550840  36.9678830  21.3135750
   7.0735720  36.7809810  20.4732410   6.3486900  36.1157880  21.6238680
  10.1540570  41.8802970  25.0111550   9.7784170  41.1130900  24.5792840
   9.4243690  42.2625670  25.4986480   9.5440190  41.0274490  34.6451070
   9.3126280  40.7987240  33.7449020   9.8044740  41.9474040  34.5995960
   9.4291530  40.1060460  28.3118790   9.9529010  39.6123110  27.6808960
  10.0150950  40.2410820  29.0566360   9.6081250  40.1900330  31.8338340
   8.6583960  40.1563870  31.9483330   9.7894260  41.1000440  31.5988110
   8.9191500  39.3633810  24.2511200   9.4150620  39.1304680  25.0360080
   8.7207570  38.5245650  23.8348840  10.3478660  37.9994760  26.7848880
  10.2377940  37.8450800  27.7231150  11.1086250  37.4715700  26.5424290
   8.6944380  33.9388890  33.2431880   9.3316600  34.5523030  33.6091070
   8.8419270  33.9749550  32.2981110  11.2368930  35.8302680  20.0255020
  12.1618240  35.6983860  19.8173310  11.2144720  35.9095500  20.9791470
  11.3107420  36.6013340  22.6511730  10.5158920  36.5358460  23.1804640
  11.5150700  37.5363980  22.6397080   2.0648860  35.0915080  36.1506980
   2.0037750  35.6836910  36.9002390   3.0049240  34.9841040  36.0057240
   4.7023420  34.7485140  35.7899270   5.3163830  35.0664430  35.1280350
   5.2472980  34.2633730  36.4095130   5.4431460  33.3117280  32.1168560
   4.5691300  33.6452390  31.9141490   5.3342210  32.8390460  32.9420430
   6.3503440  35.5188150  33.5010280   6.0216800  34.7039910  33.1212010
   7.2985740  35.4757960  33.3775970   3.1906280  34.2287120  31.0561470
   2.4078070  34.7032620  31.3358230   2.8969210  33.3241950  30.9474650
   7.7427350  34.9310220  29.1010560   8.1835440  34.8755320  28.2532160
   7.4734940  35.8468230  29.1720740   9.6065920  34.5625460  27.1119380
   9.5454320  33.6186680  26.9650400  10.3857950  34.6705550  27.6572840
   5.5785480  33.3116320  27.8060570   6.1814850  33.8836530  28.2809090
   4.8378470  33.8755760  27.5834470   8.7220080  33.7137880  23.0800850
   8.9170710  34.6121330  23.3468280   7.9349950  33.4824960  23.5733800
   4.7338850  41.5103820   8.5490250   4.6532900  40.5958430   8.2781960
   4.3203270  42.0070890   7.8429960   2.8656890  43.2882840  10.4299520
   2.0898990  42.8083280  10.7198090   3.5169820  42.6088490  10.2555680
   3.3371050  38.7710410  10.6638610   3.7135870  37.8982290  10.5512280
   3.2390560  39.1069110   9.7729050   7.1195170  36.2660850   7.5966950
   7.9404790  35.7757420   7.6392430   7.1529250  36.8558510   8.3498790
  11.4094720  38.2827600  14.1610580  10.7046890  38.6709310  13.6425690
  11.6752640  38.9777890  14.7631510   7.3556650  38.2061230  10.3694490
   6.6512220  38.4946120  10.9497600   7.7168810  39.0161340  10.0094050
  10.4243570  37.6516020  10.7603700   9.4768480  37.6855000  10.8919130
  10.7493560  38.4654970  11.1453060   5.9063610  44.5710330  12.6749760
   6.3232400  44.3570440  11.8403220   6.6303430  44.8283120  13.2458380
   3.3443870  42.0162030   5.7919810   2.4173150  41.9499410   6.0208280
   3.4968690  42.9542160   5.6775050   3.3312950  38.2879030   2.7886970
   2.3916620  38.4492990   2.8739430   3.6496210  39.0064710   2.2422960
   9.8525710  42.9697550  12.7666000   9.0244340  43.0390640  12.2916130
  10.4476190  43.5551860  12.2981830   7.3741160  43.5782330   6.2955060
   6.7553580  43.2401880   5.6481360   7.3565610  42.9342090   7.0034250
   6.8167720  39.7566870  13.7120870   6.4038900  40.5820580  13.9660860
   6.0843670  39.1711910  13.5197230   5.5505860  42.8169140   3.3027810
   5.9899140  41.9791570   3.1565630   6.2634280  43.4498540   3.3891950
  10.3424290  38.8083450  17.5942990   9.7268560  39.3163120  17.0658450
  10.0220710  37.9081780  17.5368930   2.4038610  37.6475340  15.0605180
   1.9417980  37.8558360  15.8725120   2.0016720  36.8334690  14.7575850
   7.4043120  38.8684290  16.1901840   6.5536710  38.5690040  16.5110910
   7.2444910  39.1126300  15.2785660   4.4992830  40.3686040  18.2900630
   4.8246240  39.5349790  17.9502860   5.2873160  40.8914560  18.4378960
   5.1380780  39.9103760   5.7841760   4.5389670  40.6339560   5.6005380
   5.6860390  39.8480540   5.0018210   3.7445650  38.5467300   7.8145040
   4.1375220  38.8639500   7.0013730   4.1062500  37.6679180   7.9289560
   2.0537820  37.2974610  19.0741900   1.3636140  37.1046810  19.7087990
   2.7970120  37.5809250  19.6066200   4.3300790  41.1373050  11.9095820
   3.5981910  41.6459860  12.2585920   3.9325130  40.3203030  11.6084600
   4.7926700  36.5906730  11.3218760   4.8099440  37.0415380  12.1660610
   4.5442280  35.6912370  11.5352200   8.2197450  34.0038910  17.1605140
   8.5443220  33.2728570  17.6863120   8.2553960  33.6852550  16.2586130
   8.1455290  44.1164020  10.7691170   8.8654410  44.6119310  10.3787280
   7.9437110  43.4381910  10.1245040   3.6065230  35.5101980   4.9120560
   2.7929840  35.0115150   4.8365870   3.4127180  36.3500230   4.4956910
   3.5274090  44.1873080  16.6560170   3.4611400  43.2668750  16.4017760
   2.8979230  44.2848520  17.3704810   6.3213620  39.8821630   3.2082720
   7.2093240  40.1938860   3.0334060   6.2918710  39.0093880   2.8163300
   8.5927890  41.1933470   2.6762580   8.5091610  41.6247690   1.8259020
   9.3122080  41.6531820   3.1089400   9.6702030  43.6500990  15.7532550
   8.9450220  44.2429770  15.5561940  10.1977490  43.6424530  14.9545920
   5.2001620  45.3761160   9.2516400   5.5525440  44.7789290   8.5917770
   4.3163950  45.0505390   9.4224650   7.5928770  44.8564130   3.6035220
   7.3050470  45.3176820   4.3913100   8.3880940  44.3961900   3.8719440
   4.9836600  37.7355960  13.9542840   5.3517420  36.9151170  14.2822410
   4.1234800  37.7957850  14.3698490   8.3498630  36.6912900   4.7630400
   7.7211790  36.7958570   4.0488630   7.8550550  36.9109680   5.5524280
   1.9438590  40.3895550  14.1780810   2.4423840  40.8641370  14.8432660
   2.0861540  39.4659070  14.3850840   4.3498090  35.6949510   7.6184070
   4.2265870  35.7135640   6.6693580   5.2982650  35.7428450   7.7382470
   9.1505450  36.6063510  15.0209200   8.6479050  37.3468910  15.3603010
   9.9662110  36.9947510  14.7045990   7.4427460  41.8496690   8.4670560
   6.5017600  41.8646920   8.6418250   7.7571530  41.0632650   8.9130860
   3.7853010  44.5690500   2.1051860   3.2363110  45.0159800   2.7494600
   4.4072270  44.0639750   2.6289530   6.5133610  43.9747430  16.5729330
   6.9274630  44.1292510  17.4219750   5.5784610  44.1002650  16.7355110
   6.9855780  41.3143590  18.5768480   7.5676550  40.5595910  18.4888960
   7.1617550  41.8451030  17.7999960   3.6112740  41.6584090  15.9263100
   3.7308950  41.0625230  16.6657940   4.4706740  41.6953780  15.5064400
   5.9500640  42.2121280  14.5025610   5.4235860  42.7363900  13.8990750
   6.2931980  42.8448670  15.1335340   5.1974940  37.8171250  17.4171940
   4.5090460  37.1552790  17.3521930   5.9180960  37.3709520  17.8620400
   5.8275340  34.4122880   3.4762200   6.1077630  33.5690780   3.8321620
   5.0541070  34.6445990   3.9900950  10.2056060  43.6499610   4.0866110
  10.9674970  44.2196260   4.1925800  10.2210430  43.0826810   4.8574420
  11.2116030  44.5049710   8.9308040  11.5824860  43.7217030   8.5244010
  11.8517960  45.1938810   8.7525340   6.6550840  36.9678830   2.5392260
   7.0735720  36.7809810   1.6988920   6.3486900  36.1157880   2.8495190
  10.1540570  41.8802970   6.2368060   9.7784170  41.1130900   5.8049350
   9.4243690  42.2625670   6.7242990   9.5440190  41.0274490  15.8707580
   9.3126280  40.7987240  14.9705530   9.8044740  41.9474040  15.8252470
   7.9828260  36.2530920  18.6487280   8.8598440  36.2614320  19.0321280
   7.9949100  35.5161760  18.0379630   9.4291530  40.1060460   9.5375300
   9.9529010  39.6123110   8.9065470  10.0150950  40.2410820  10.2822870
   9.6081250  40.1900330  13.0594850   8.6583960  40.1563870  13.1739840
   9.7894260  41.1000440  12.8244620   8.9191500  39.3633810   5.4767710
   9.4150620  39.1304680   6.2616590   8.7207570  38.5245650   5.0605350
  10.3478660  37.9994760   8.0105390  10.2377940  37.8450800   8.9487660
  11.1086250  37.4715700   7.7680800   8.6944380  33.9388890  14.4688390
   9.3316600  34.5523030  14.8347580   8.8419270  33.9749550  13.5237620
  11.3107420  36.6013340   3.8768240  10.5158920  36.5358460   4.4061150
  11.5150700  37.5363980   3.8653590   2.0648860  35.0915080  17.3763490
   2.0037750  35.6836910  18.1258900   3.0049240  34.9841040  17.2313750
   4.7023420  34.7485140  17.0155780   5.3163830  35.0664430  16.3536860
   5.2472980  34.2633730  17.6351640   5.4431460  33.3117280  13.3425070
   4.5691300  33.6452390  13.1398000   5.3342210  32.8390460  14.1676940
   6.3503440  35.5188150  14.7266790   6.0216800  34.7039910  14.3468520
   7.2985740  35.4757960  14.6032480   3.1906280  34.2287120  12.2817980
   2.4078070  34.7032620  12.5614740   2.8969210  33.3241950  12.1731160
   7.7427350  34.9310220  10.3267070   8.1835440  34.8755320   9.4788670
   7.4734940  35.8468230  10.3977250   9.6065920  34.5625460   8.3375890
   9.5454320  33.6186680   8.1906910  10.3857950  34.6705550   8.8829350
   5.5785480  33.3116320   9.0317080   6.1814850  33.8836530   9.5065600
   4.8378470  33.8755760   8.8090980   8.7220080  33.7137880   4.3057360
   8.9170710  34.6121330   4.5724790   7.9349950  33.4824960   4.7990310
   5.8280700  33.4911350  19.4112020   5.7146150  33.8105960  20.3063540
   6.6450440  33.8923860  19.1149300   4.7338850  22.7360330  27.3233740
   4.6532900  21.8214940  27.0525450   4.3203270  23.2327400  26.6173450
   2.8656890  24.5139350  29.2043010   2.0898990  24.0339790  29.4941580
   3.5169820  23.8345000  29.0299170   6.8864320  28.9199540  27.9842140
   6.4245850  28.1486780  28.3129310   7.6989870  28.9465610  28.4894590
   3.1127630  31.2057550  27.6046130   2.4939070  31.6615050  27.0340570
   3.9679410  31.3609010  27.2035830   2.3065880  27.1896540  29.2113170
   2.2374160  26.2486480  29.0502300   3.0685740  27.2797950  29.7835740
   3.3371050  19.9966920  29.4382100   3.7135870  19.1238800  29.3255770
   3.2390560  20.3325620  28.5472540   7.1195170  17.4917360  26.3710440
   7.9404790  17.0013930  26.4135920   7.1529250  18.0815020  27.1242280
  11.4094720  19.5084110  32.9354070  10.7046890  19.8965820  32.4169180
  11.6752640  20.2034400  33.5375000   3.9790980  26.0896790  24.9978040
   3.3608250  26.5546240  24.4340760   4.4914230  26.7824270  25.4147550
   7.3556650  19.4317740  29.1437980   6.6512220  19.7202630  29.7241090
   7.7168810  20.2417850  28.7837540   8.9719430  29.0492870  31.4065460
   8.2882950  29.7191980  31.3982130   9.5113720  29.2473520  30.6410320
  10.4243570  18.8772530  29.5347190   9.4768480  18.9111510  29.6662620
  10.7493560  19.6911480  29.9196550   6.5078170  30.8937000  30.1210640
   6.5205330  30.4899290  29.2532900   5.9553390  31.6684290  30.0172070
   7.8023590  27.6153220  25.2100810   7.6919920  26.6727550  25.3350230
   7.7991840  27.9768860  26.0963570   5.9063610  25.7966840  31.4493250
   6.3232400  25.5826950  30.6146710   6.6303430  26.0539630  32.0201870
   3.3443870  23.2418540  24.5663300   2.4173150  23.1755920  24.7951770
   3.4968690  24.1798670  24.4518540   3.3312950  19.5135540  21.5630460
   2.3916620  19.6749500  21.6482920   3.6496210  20.2321220  21.0166450
   9.8525710  24.1954060  31.5409490   9.0244340  24.2647150  31.0659620
  10.4476190  24.7808370  31.0725320   7.3741160  24.8038840  25.0698550
   6.7553580  24.4658390  24.4224850   7.3565610  24.1598600  25.7777740
   6.8167720  20.9823380  32.4864360   6.4038900  21.8077090  32.7404350
   6.0843670  20.3968420  32.2940720   7.5067820  31.0282710  33.1745340
   7.0298380  31.8354900  32.9817950   6.8229610  30.3761040  33.3271550
   5.5505860  24.0425650  22.0771300   5.9899140  23.2048080  21.9309120
   6.2634280  24.6755050  22.1635440   3.6601240  28.9821720  26.0452540
   4.0997150  29.7246050  25.6307930   3.5988130  29.2248290  26.9691500
   9.1323000  15.2968460  20.3912340   8.8195660  15.3895290  21.2911410
   9.8935470  15.8749490  20.3409770  10.4900280  27.9807500  35.4036740
  10.6163340  27.7419380  34.4853920  10.5321660  27.1492040  35.8758820
   4.3517020  31.6835500  33.9731550   4.8661690  31.5943510  34.7753980
   3.5086100  32.0295200  34.2659460   6.3271420  31.9690840  23.4015550
   6.1672560  31.6793780  24.2997380   6.1618130  31.1930970  22.8660780
   6.0297550  29.4778400  21.9613550   5.3362710  29.4755690  21.3015830
   6.7720410  29.0537720  21.5307720   5.5947480  31.1041110  26.0362040
   6.0504430  30.3230490  26.3500660   5.9340000  31.8147930  26.5803220
  10.3424290  20.0339960  36.3686480   9.7268560  20.5419630  35.8401940
  10.0220710  19.1338290  36.3112420   2.4038610  18.8731850  33.8348670
   1.9417980  19.0814870  34.6468610   2.0016720  18.0591200  33.5319340
   7.4043120  20.0940800  34.9645330   6.5536710  19.7946550  35.2854400
   7.2444910  20.3382810  34.0529150   4.4992830  21.5942550  37.0644120
   4.8246240  20.7606300  36.7246350   5.2873160  22.1171070  37.2122450
   5.1380780  21.1360270  24.5585250   4.5389670  21.8596070  24.3748870
   5.6860390  21.0737050  23.7761700   3.7445650  19.7723810  26.5888530
   4.1375220  20.0896010  25.7757220   4.1062500  18.8935690  26.7033050
   4.3300790  22.3629560  30.6839310   3.5981910  22.8716370  31.0329410
   3.9325130  21.5459540  30.3828090   4.7926700  17.8163240  30.0962250
   4.8099440  18.2671890  30.9404100   4.5442280  16.9168880  30.3095690
   8.2197450  15.2295420  35.9348630   8.5443220  14.4985080  36.4606610
   8.2553960  14.9109060  35.0329620   8.1455290  25.3420530  29.5434660
   8.8654410  25.8375820  29.1530770   7.9437110  24.6638420  28.8988530
   3.6065230  16.7358490  23.6864050   2.7929840  16.2371660  23.6109360
   3.4127180  17.5756740  23.2700400   3.5274090  25.4129590  35.4303660
   3.4611400  24.4925260  35.1761250   2.8979230  25.5105030  36.1448300
   6.3213620  21.1078140  21.9826210   7.2093240  21.4195370  21.8077550
   6.2918710  20.2350390  21.5906790   2.3174210  27.2801830  22.6614380
   2.6589910  28.0244060  22.1657700   1.4886920  27.5932950  23.0239210
   3.4590820  28.2350160  35.1807460   3.4735360  27.3031120  34.9626370
   2.7515920  28.3209920  35.8197230   8.5927890  22.4189980  21.4506070
   8.5091610  22.8504200  20.6002510   9.3122080  22.8788330  21.8832890
   9.6702030  24.8757500  34.5276040   8.9450220  25.4686280  34.3305430
  10.1977490  24.8681040  33.7289410   9.6215140  29.2732240  24.1788200
   8.9791300  28.6187860  24.4531920   9.2345800  29.6787330  23.4028870
   5.2001620  26.6017670  28.0259890   5.5525440  26.0045800  27.3661260
   4.3163950  26.2761900  28.1968140   2.8924720  29.8767730  32.2747960
   3.5366940  30.0827110  32.9521380   3.2554160  29.1156130  31.8218810
   4.1656800  27.8800080  30.9925410   4.8079030  27.1793240  31.1057580
   4.6906150  28.6598520  30.8122300   8.0112520  28.1648700  20.7164550
   7.7850100  27.4479140  21.3089190   7.6208720  27.9161140  19.8786300
   5.9394420  28.6794980  34.1961470   6.2750660  29.2661670  34.8739390
   5.0194760  28.5487690  34.4259260   7.5928770  26.0820640  22.3778710
   7.3050470  26.5433330  23.1656590   8.3880940  25.6218410  22.6462930
   4.9836600  18.9612470  32.7286330   5.3517420  18.1407680  33.0565900
   4.1234800  19.0214360  33.1441980   8.3498630  17.9169410  23.5373890
   7.7211790  18.0215080  22.8232120   7.8550550  18.1366190  24.3267770
   2.7956770  29.6375000  20.9707870   2.8968750  29.4338990  20.0409850
   1.8958510  29.3833280  21.1755650   1.9438590  21.6152060  32.9524300
   2.4423840  22.0897880  33.6176150   2.0861540  20.6915580  33.1594330
   4.3498090  16.9206020  26.3927560   4.2265870  16.9392150  25.4437070
   5.2982650  16.9684960  26.5125960   9.1505450  17.8320020  33.7952690
   8.6479050  18.5725420  34.1346500   9.9662110  18.2204020  33.4789480
   7.4427460  23.0753200  27.2414050   6.5017600  23.0903430  27.4161740
   7.7571530  22.2889160  27.6874350   9.4453040  30.2462050  28.9168310
   9.5700460  31.0693220  29.3892120  10.3118600  30.0352780  28.5692460
   6.1893850  31.3599490  36.3355840   7.1415600  31.2757510  36.2856080
   6.0422070  32.0241200  37.0089630   9.0803050  30.7393700  21.8347750
   8.7944560  30.3258840  21.0201930   8.8822600  31.6681410  21.7148270
   3.7853010  25.7947010  20.8795350   3.2363110  26.2416310  21.5238090
   4.4072270  25.2896260  21.4033020   7.8387950  27.1489110  36.8117610
   8.5797420  27.4864870  36.3085070   7.0760630  27.3181170  36.2587380
   1.9655770  23.7775540  20.0237750   2.4861430  23.0624560  19.6578900
   2.6124170  24.4161410  20.3238260   6.5133610  25.2003940  35.3472820
   6.9274630  25.3549020  36.1963240   5.5784610  25.3259160  35.5098600
   6.9855780  22.5400100  37.3511970   7.5676550  21.7852420  37.2632450
   7.1617550  23.0707540  36.5743450   3.6112740  22.8840600  34.7006590
   3.7308950  22.2881740  35.4401430   4.4706740  22.9210290  34.2807890
   5.9500640  23.4377790  33.2769100   5.4235860  23.9620410  32.6734240
   6.2931980  24.0705180  33.9078830   5.1974940  19.0427760  36.1915430
   4.5090460  18.3809300  36.1265420   5.9180960  18.5966030  36.6363890
   5.8275340  15.6379390  22.2505690   6.1077630  14.7947290  22.6065110
   5.0541070  15.8702500  22.7644440   1.9818470  32.6928640  34.6913130
   1.9077170  33.5963780  34.9985500   1.0797310  32.3740540  34.6635200
   2.5303800  31.8587150  22.3139490   3.4254590  32.1972120  22.3358250
   2.5621430  31.1366560  21.6863770   9.5098150  30.3890820  35.0205690
   8.9100140  30.4483380  34.2769610   9.6392050  29.4495800  35.1502540
  11.2116030  25.7306220  27.7051530  11.5824860  24.9473540  27.2987500
  11.8517960  26.4195320  27.5268830   8.1949790  27.1142800  33.1181850
   7.3809630  27.5439960  33.3807640   8.6023990  27.7261210  32.5050900
  10.2575230  25.1690490  20.0182120  10.5324070  26.0769370  19.8901340
  10.0685970  25.1053020  20.9544110   6.6550840  18.1935340  21.3135750
   7.0735720  18.0066320  20.4732410   6.3486900  17.3414390  21.6238680
  10.1540570  23.1059480  25.0111550   9.7784170  22.3387410  24.5792840
   9.4243690  23.4882180  25.4986480   9.5440190  22.2531000  34.6451070
   9.3126280  22.0243750  33.7449020   9.8044740  23.1730550  34.5995960
   9.4291530  21.3316970  28.3118790   9.9529010  20.8379620  27.6808960
  10.0150950  21.4667330  29.0566360   9.6081250  21.4156840  31.8338340
   8.6583960  21.3820380  31.9483330   9.7894260  22.3256950  31.5988110
   8.9191500  20.5890320  24.2511200   9.4150620  20.3561190  25.0360080
   8.7207570  19.7502160  23.8348840  10.3478660  19.2251270  26.7848880
  10.2377940  19.0707310  27.7231150  11.1086250  18.6972210  26.5424290
   8.6944380  15.1645400  33.2431880   9.3316600  15.7779540  33.6091070
   8.8419270  15.2006060  32.2981110  11.2368930  17.0559190  20.0255020
  12.1618240  16.9240370  19.8173310  11.2144720  17.1352010  20.9791470
  11.3107420  17.8269850  22.6511730  10.5158920  17.7614970  23.1804640
  11.5150700  18.7620490  22.6397080   8.2525840  31.8661400  26.6450120
   8.8484910  31.5445970  25.9684540   8.5103990  31.3933220  27.4363390
   2.0648860  16.3171590  36.1506980   2.0037750  16.9093420  36.9002390
   3.0049240  16.2097550  36.0057240   4.7023420  15.9741650  35.7899270
   5.3163830  16.2920940  35.1280350   5.2472980  15.4890240  36.4095130
  11.1198600  31.8733280  33.1961110  10.6256880  32.2702150  32.4788240
  10.5111890  31.2482490  33.5898390   5.4431460  14.5373790  32.1168560
   4.5691300  14.8708900  31.9141490   5.3342210  14.0646970  32.9420430
   6.3503440  16.7444660  33.5010280   6.0216800  15.9296420  33.1212010
   7.2985740  16.7014470  33.3775970   8.8038050  32.5156700  30.4747850
   8.3441020  33.2672510  30.1005870   8.1750510  31.7963170  30.4162650
   1.9729270  31.7153430  30.4764960   2.2607080  31.4607730  29.5997970
   2.4852490  31.1630790  31.0670530   3.1906280  15.4543630  31.0561470
   2.4078070  15.9289130  31.3358230   2.8969210  14.5498460  30.9474650
   7.7427350  16.1566730  29.1010560   8.1835440  16.1011830  28.2532160
   7.4734940  17.0724740  29.1720740   9.6065920  15.7881970  27.1119380
   9.5454320  14.8443190  26.9650400  10.3857950  15.8962060  27.6572840
   5.5785480  14.5372830  27.8060570   6.1814850  15.1093040  28.2809090
   4.8378470  15.1012270  27.5834470   8.7220080  14.9394390  23.0800850
   8.9170710  15.8377840  23.3468280   7.9349950  14.7081470  23.5733800
  10.2746690  32.1795100  24.8407410  10.4498880  31.4932840  24.1968330
   9.5768260  32.7042150  24.4484080   4.7338850  22.7360330   8.5490250
   4.6532900  21.8214940   8.2781960   4.3203270  23.2327400   7.8429960
   2.8656890  24.5139350  10.4299520   2.0898990  24.0339790  10.7198090
   3.5169820  23.8345000  10.2555680   6.8864320  28.9199540   9.2098650
   6.4245850  28.1486780   9.5385820   7.6989870  28.9465610   9.7151100
   3.1127630  31.2057550   8.8302640   2.4939070  31.6615050   8.2597080
   3.9679410  31.3609010   8.4292340   2.3065880  27.1896540  10.4369680
   2.2374160  26.2486480  10.2758810   3.0685740  27.2797950  11.0092250
   3.3371050  19.9966920  10.6638610   3.7135870  19.1238800  10.5512280
   3.2390560  20.3325620   9.7729050   7.1195170  17.4917360   7.5966950
   7.9404790  17.0013930   7.6392430   7.1529250  18.0815020   8.3498790
   3.9790980  26.0896790   6.2234550   3.3608250  26.5546240   5.6597270
   4.4914230  26.7824270   6.6404060   7.3556650  19.4317740  10.3694490
   6.6512220  19.7202630  10.9497600   7.7168810  20.2417850  10.0094050
   8.9719430  29.0492870  12.6321970   8.2882950  29.7191980  12.6238640
   9.5113720  29.2473520  11.8666830  10.4243570  18.8772530  10.7603700
   9.4768480  18.9111510  10.8919130  10.7493560  19.6911480  11.1453060
   6.5078170  30.8937000  11.3467150   6.5205330  30.4899290  10.4789410
   5.9553390  31.6684290  11.2428580   7.8023590  27.6153220   6.4357320
   7.6919920  26.6727550   6.5606740   7.7991840  27.9768860   7.3220080
   5.9063610  25.7966840  12.6749760   6.3232400  25.5826950  11.8403220
   6.6303430  26.0539630  13.2458380   3.3443870  23.2418540   5.7919810
   2.4173150  23.1755920   6.0208280   3.4968690  24.1798670   5.6775050
   3.3312950  19.5135540   2.7886970   2.3916620  19.6749500   2.8739430
   3.6496210  20.2321220   2.2422960   9.8525710  24.1954060  12.7666000
   9.0244340  24.2647150  12.2916130  10.4476190  24.7808370  12.2981830
   7.3741160  24.8038840   6.2955060   6.7553580  24.4658390   5.6481360
   7.3565610  24.1598600   7.0034250   6.8167720  20.9823380  13.7120870
   6.4038900  21.8077090  13.9660860   6.0843670  20.3968420  13.5197230
   7.5067820  31.0282710  14.4001850   7.0298380  31.8354900  14.2074460
   6.8229610  30.3761040  14.5528060   5.5505860  24.0425650   3.3027810
   5.9899140  23.2048080   3.1565630   6.2634280  24.6755050   3.3891950
   3.6601240  28.9821720   7.2709050   4.0997150  29.7246050   6.8564440
   3.5988130  29.2248290   8.1948010  10.4900280  27.9807500  16.6293250
  10.6163340  27.7419380  15.7110430  10.5321660  27.1492040  17.1015330
   4.3517020  31.6835500  15.1988060   4.8661690  31.5943510  16.0010490
   3.5086100  32.0295200  15.4915970   6.3271420  31.9690840   4.6272060
   6.1672560  31.6793780   5.5253890   6.1618130  31.1930970   4.0917290
   6.0297550  29.4778400   3.1870060   5.3362710  29.4755690   2.5272340
   6.7720410  29.0537720   2.7564230   5.5947480  31.1041110   7.2618550
   6.0504430  30.3230490   7.5757170   5.9340000  31.8147930   7.8059730
  10.3424290  20.0339960  17.5942990   9.7268560  20.5419630  17.0658450
  10.0220710  19.1338290  17.5368930   2.4038610  18.8731850  15.0605180
   1.9417980  19.0814870  15.8725120   2.0016720  18.0591200  14.7575850
   7.4043120  20.0940800  16.1901840   6.5536710  19.7946550  16.5110910
   7.2444910  20.3382810  15.2785660   4.4992830  21.5942550  18.2900630
   4.8246240  20.7606300  17.9502860   5.2873160  22.1171070  18.4378960
   5.1380780  21.1360270   5.7841760   4.5389670  21.8596070   5.6005380
   5.6860390  21.0737050   5.0018210   3.7445650  19.7723810   7.8145040
   4.1375220  20.0896010   7.0013730   4.1062500  18.8935690   7.9289560
   2.0537820  18.5231120  19.0741900   1.3636140  18.3303320  19.7087990
   2.7970120  18.8065760  19.6066200   4.3300790  22.3629560  11.9095820
   3.5981910  22.8716370  12.2585920   3.9325130  21.5459540  11.6084600
   4.7926700  17.8163240  11.3218760   4.8099440  18.2671890  12.1660610
   4.5442280  16.9168880  11.5352200   8.2197450  15.2295420  17.1605140
   8.5443220  14.4985080  17.6863120   8.2553960  14.9109060  16.2586130
   8.1455290  25.3420530  10.7691170   8.8654410  25.8375820  10.3787280
   7.9437110  24.6638420  10.1245040   3.6065230  16.7358490   4.9120560
   2.7929840  16.2371660   4.8365870   3.4127180  17.5756740   4.4956910
   3.5274090  25.4129590  16.6560170   3.4611400  24.4925260  16.4017760
   2.8979230  25.5105030  17.3704810   6.3213620  21.1078140   3.2082720
   7.2093240  21.4195370   3.0334060   6.2918710  20.2350390   2.8163300
   2.3174210  27.2801830   3.8870890   2.6589910  28.0244060   3.3914210
   1.4886920  27.5932950   4.2495720   3.4590820  28.2350160  16.4063970
   3.4735360  27.3031120  16.1882880   2.7515920  28.3209920  17.0453740
   8.5927890  22.4189980   2.6762580   8.5091610  22.8504200   1.8259020
   9.3122080  22.8788330   3.1089400   9.6702030  24.8757500  15.7532550
   8.9450220  25.4686280  15.5561940  10.1977490  24.8681040  14.9545920
   9.6215140  29.2732240   5.4044710   8.9791300  28.6187860   5.6788430
   9.2345800  29.6787330   4.6285380   5.2001620  26.6017670   9.2516400
   5.5525440  26.0045800   8.5917770   4.3163950  26.2761900   9.4224650
   2.8924720  29.8767730  13.5004470   3.5366940  30.0827110  14.1777890
   3.2554160  29.1156130  13.0475320   4.1656800  27.8800080  12.2181920
   4.8079030  27.1793240  12.3314090   4.6906150  28.6598520  12.0378810
   5.9394420  28.6794980  15.4217980   6.2750660  29.2661670  16.0995900
   5.0194760  28.5487690  15.6515770   7.5928770  26.0820640   3.6035220
   7.3050470  26.5433330   4.3913100   8.3880940  25.6218410   3.8719440
   1.7683000  28.7286310  18.5906040   1.4479870  28.0095550  19.1351730
   1.0941360  29.4041380  18.6642100   4.9836600  18.9612470  13.9542840
   5.3517420  18.1407680  14.2822410   4.1234800  19.0214360  14.3698490
   8.3498630  17.9169410   4.7630400   7.7211790  18.0215080   4.0488630
   7.8550550  18.1366190   5.5524280   1.9438590  21.6152060  14.1780810
   2.4423840  22.0897880  14.8432660   2.0861540  20.6915580  14.3850840
   4.3498090  16.9206020   7.6184070   4.2265870  16.9392150   6.6693580
   5.2982650  16.9684960   7.7382470   9.1505450  17.8320020  15.0209200
   8.6479050  18.5725420  15.3603010   9.9662110  18.2204020  14.7045990
   7.4427460  23.0753200   8.4670560   6.5017600  23.0903430   8.6418250
   7.7571530  22.2889160   8.9130860   9.4453040  30.2462050  10.1424820
   9.5700460  31.0693220  10.6148630  10.3118600  30.0352780   9.7948970
   4.7593480  27.6319200  18.9502940   4.1531640  27.6550800  18.2098690
   4.4547590  26.9002240  19.4870190   6.1893850  31.3599490  17.5612350
   7.1415600  31.2757510  17.5112590   6.0422070  32.0241200  18.2346140
   9.0803050  30.7393700   3.0604260   8.7944560  30.3258840   2.2458440
   8.8822600  31.6681410   2.9404780   3.7853010  25.7947010   2.1051860
   3.2363110  26.2416310   2.7494600   4.4072270  25.2896260   2.6289530
   7.8387950  27.1489110  18.0374120   8.5797420  27.4864870  17.5341580
   7.0760630  27.3181170  17.4843890   6.5133610  25.2003940  16.5729330
   6.9274630  25.3549020  17.4219750   5.5784610  25.3259160  16.7355110
   6.9855780  22.5400100  18.5768480   7.5676550  21.7852420  18.4888960
   7.1617550  23.0707540  17.7999960   3.6112740  22.8840600  15.9263100
   3.7308950  22.2881740  16.6657940   4.4706740  22.9210290  15.5064400
   5.9500640  23.4377790  14.5025610   5.4235860  23.9620410  13.8990750
   6.2931980  24.0705180  15.1335340   5.1974940  19.0427760  17.4171940
   4.5090460  18.3809300  17.3521930   5.9180960  18.5966030  17.8620400
   5.8275340  15.6379390   3.4762200   6.1077630  14.7947290   3.8321620
   5.0541070  15.8702500   3.9900950   1.9818470  32.6928640  15.9169640
   1.9077170  33.5963780  16.2242010   1.0797310  32.3740540  15.8891710
   2.5303800  31.8587150   3.5396000   3.4254590  32.1972120   3.5614760
   2.5621430  31.1366560   2.9120280   9.5098150  30.3890820  16.2462200
   8.9100140  30.4483380  15.5026120   9.6392050  29.4495800  16.3759050
  10.2056060  24.8756120   4.0866110  10.9674970  25.4452770   4.1925800
  10.2210430  24.3083320   4.8574420  11.2116030  25.7306220   8.9308040
  11.5824860  24.9473540   8.5244010  11.8517960  26.4195320   8.7525340
   8.1949790  27.1142800  14.3438360   7.3809630  27.5439960  14.6064150
   8.6023990  27.7261210  13.7307410   6.6550840  18.1935340   2.5392260
   7.0735720  18.0066320   1.6988920   6.3486900  17.3414390   2.8495190
  10.1540570  23.1059480   6.2368060   9.7784170  22.3387410   5.8049350
   9.4243690  23.4882180   6.7242990   7.9828260  17.4787430  18.6487280
   8.8598440  17.4870830  19.0321280   7.9949100  16.7418270  18.0379630
   9.4291530  21.3316970   9.5375300   9.9529010  20.8379620   8.9065470
  10.0150950  21.4667330  10.2822870   9.6081250  21.4156840  13.0594850
   8.6583960  21.3820380  13.1739840   9.7894260  22.3256950  12.8244620
   8.9191500  20.5890320   5.4767710   9.4150620  20.3561190   6.2616590
   8.7207570  19.7502160   5.0605350  10.3478660  19.2251270   8.0105390
  10.2377940  19.0707310   8.9487660  11.1086250  18.6972210   7.7680800
   8.6944380  15.1645400  14.4688390   9.3316600  15.7779540  14.8347580
   8.8419270  15.2006060  13.5237620  11.3107420  17.8269850   3.8768240
  10.5158920  17.7614970   4.4061150  11.5150700  18.7620490   3.8653590
   8.2525840  31.8661400   7.8706630   8.8484910  31.5445970   7.1941050
   8.5103990  31.3933220   8.6619900   2.0648860  16.3171590  17.3763490
   2.0037750  16.9093420  18.1258900   3.0049240  16.2097550  17.2313750
   4.7023420  15.9741650  17.0155780   5.3163830  16.2920940  16.3536860
   5.2472980  15.4890240  17.6351640  11.1198600  31.8733280  14.4217620
  10.6256880  32.2702150  13.7044750  10.5111890  31.2482490  14.8154900
   5.4431460  14.5373790  13.3425070   4.5691300  14.8708900  13.1398000
   5.3342210  14.0646970  14.1676940   6.3503440  16.7444660  14.7266790
   6.0216800  15.9296420  14.3468520   7.2985740  16.7014470  14.6032480
   8.8038050  32.5156700  11.7004360   8.3441020  33.2672510  11.3262380
   8.1750510  31.7963170  11.6419160   1.9729270  31.7153430  11.7021470
   2.2607080  31.4607730  10.8254480   2.4852490  31.1630790  12.2927040
   3.1906280  15.4543630  12.2817980   2.4078070  15.9289130  12.5614740
   2.8969210  14.5498460  12.1731160   7.7427350  16.1566730  10.3267070
   8.1835440  16.1011830   9.4788670   7.4734940  17.0724740  10.3977250
   9.6065920  15.7881970   8.3375890   9.5454320  14.8443190   8.1906910
  10.3857950  15.8962060   8.8829350   5.5785480  14.5372830   9.0317080
   6.1814850  15.1093040   9.5065600   4.8378470  15.1012270   8.8090980
   8.7220080  14.9394390   4.3057360   8.9170710  15.8377840   4.5724790
   7.9349950  14.7081470   4.7990310   2.0401630  32.6369530  19.0689670
   2.9668940  32.4013800  19.1125630   2.0252060  33.4641530  18.5875700
  10.2746690  32.1795100   6.0663920  10.4498880  31.4932840   5.4224840
   9.5768260  32.7042150   5.6740590   5.8280700  14.7167860  19.4112020
   5.7146150  15.0362470  20.3063540   6.6450440  15.1180370  19.1149300
   8.6079190  31.8639390  18.8930710   9.4004510  31.3688620  18.6856670
   8.9012340  32.5429530  19.5006320   4.7338850   3.9616840  27.3233740
   4.6532900   3.0471450  27.0525450   4.3203270   4.4583910  26.6173450
   2.8656890   5.7395860  29.2043010   2.0898990   5.2596300  29.4941580
   3.5169820   5.0601510  29.0299170   6.8864320  10.1456050  27.9842140
   6.4245850   9.3743290  28.3129310   7.6989870  10.1722120  28.4894590
   3.1127630  12.4314060  27.6046130   2.4939070  12.8871560  27.0340570
   3.9679410  12.5865520  27.2035830   2.3065880   8.4153050  29.2113170
   2.2374160   7.4742990  29.0502300   3.0685740   8.5054460  29.7835740
   3.9790980   7.3153300  24.9978040   3.3608250   7.7802750  24.4340760
   4.4914230   8.0080780  25.4147550   8.9719430  10.2749380  31.4065460
   8.2882950  10.9448490  31.3982130   9.5113720  10.4730030  30.6410320
   6.5078170  12.1193510  30.1210640   6.5205330  11.7155800  29.2532900
   5.9553390  12.8940800  30.0172070   7.8023590   8.8409730  25.2100810
   7.6919920   7.8984060  25.3350230   7.7991840   9.2025370  26.0963570
   5.9063610   7.0223350  31.4493250   6.3232400   6.8083460  30.6146710
   6.6303430   7.2796140  32.0201870   3.3443870   4.4675050  24.5663300
   2.4173150   4.4012430  24.7951770   3.4968690   5.4055180  24.4518540
   9.8525710   5.4210570  31.5409490   9.0244340   5.4903660  31.0659620
  10.4476190   6.0064880  31.0725320   7.3741160   6.0295350  25.0698550
   6.7553580   5.6914900  24.4224850   7.3565610   5.3855110  25.7777740
   7.5067820  12.2539220  33.1745340   7.0298380  13.0611410  32.9817950
   6.8229610  11.6017550  33.3271550   5.5505860   5.2682160  22.0771300
   5.9899140   4.4304590  21.9309120   6.2634280   5.9011560  22.1635440
   3.6601240  10.2078230  26.0452540   4.0997150  10.9502560  25.6307930
   3.5988130  10.4504800  26.9691500  10.4900280   9.2064010  35.4036740
  10.6163340   8.9675890  34.4853920  10.5321660   8.3748550  35.8758820
   4.3517020  12.9092010  33.9731550   4.8661690  12.8200020  34.7753980
   3.5086100  13.2551710  34.2659460   6.3271420  13.1947350  23.4015550
   6.1672560  12.9050290  24.2997380   6.1618130  12.4187480  22.8660780
   6.0297550  10.7034910  21.9613550   5.3362710  10.7012200  21.3015830
   6.7720410  10.2794230  21.5307720   5.5947480  12.3297620  26.0362040
   6.0504430  11.5487000  26.3500660   5.9340000  13.0404440  26.5803220
   4.4992830   2.8199060  37.0644120   4.8246240   1.9862810  36.7246350
   5.2873160   3.3427580  37.2122450   5.1380780   2.3616780  24.5585250
   4.5389670   3.0852580  24.3748870   5.6860390   2.2993560  23.7761700
   4.3300790   3.5886070  30.6839310   3.5981910   4.0972880  31.0329410
   3.9325130   2.7716050  30.3828090   8.1455290   6.5677040  29.5434660
   8.8654410   7.0632330  29.1530770   7.9437110   5.8894930  28.8988530
   3.5274090   6.6386100  35.4303660   3.4611400   5.7181770  35.1761250
   2.8979230   6.7361540  36.1448300   2.3174210   8.5058340  22.6614380
   2.6589910   9.2500570  22.1657700   1.4886920   8.8189460  23.0239210
   3.4590820   9.4606670  35.1807460   3.4735360   8.5287630  34.9626370
   2.7515920   9.5466430  35.8197230   8.5927890   3.6446490  21.4506070
   8.5091610   4.0760710  20.6002510   9.3122080   4.1044840  21.8832890
   9.6702030   6.1014010  34.5276040   8.9450220   6.6942790  34.3305430
  10.1977490   6.0937550  33.7289410   9.6215140  10.4988750  24.1788200
   8.9791300   9.8444370  24.4531920   9.2345800  10.9043840  23.4028870
   5.2001620   7.8274180  28.0259890   5.5525440   7.2302310  27.3661260
   4.3163950   7.5018410  28.1968140   2.8924720  11.1024240  32.2747960
   3.5366940  11.3083620  32.9521380   3.2554160  10.3412640  31.8218810
   4.1656800   9.1056590  30.9925410   4.8079030   8.4049750  31.1057580
   4.6906150   9.8855030  30.8122300   8.0112520   9.3905210  20.7164550
   7.7850100   8.6735650  21.3089190   7.6208720   9.1417650  19.8786300
   5.9394420   9.9051490  34.1961470   6.2750660  10.4918180  34.8739390
   5.0194760   9.7744200  34.4259260   7.5928770   7.3077150  22.3778710
   7.3050470   7.7689840  23.1656590   8.3880940   6.8474920  22.6462930
   2.7956770  10.8631510  20.9707870   2.8968750  10.6595500  20.0409850
   1.8958510  10.6089790  21.1755650   1.9438590   2.8408570  32.9524300
   2.4423840   3.3154390  33.6176150   2.0861540   1.9172090  33.1594330
   7.4427460   4.3009710  27.2414050   6.5017600   4.3159940  27.4161740
   7.7571530   3.5145670  27.6874350   9.4453040  11.4718560  28.9168310
   9.5700460  12.2949730  29.3892120  10.3118600  11.2609290  28.5692460
   6.1893850  12.5856000  36.3355840   7.1415600  12.5014020  36.2856080
   6.0422070  13.2497710  37.0089630   9.0803050  11.9650210  21.8347750
   8.7944560  11.5515350  21.0201930   8.8822600  12.8937920  21.7148270
   3.7853010   7.0203520  20.8795350   3.2363110   7.4672820  21.5238090
   4.4072270   6.5152770  21.4033020   7.8387950   8.3745620  36.8117610
   8.5797420   8.7121380  36.3085070   7.0760630   8.5437680  36.2587380
   1.9655770   5.0032050  20.0237750   2.4861430   4.2881070  19.6578900
   2.6124170   5.6417920  20.3238260   6.5133610   6.4260450  35.3472820
   6.9274630   6.5805530  36.1963240   5.5784610   6.5515670  35.5098600
   6.9855780   3.7656610  37.3511970   7.5676550   3.0108930  37.2632450
   7.1617550   4.2964050  36.5743450   3.6112740   4.1097110  34.7006590
   3.7308950   3.5138250  35.4401430   4.4706740   4.1466800  34.2807890
   5.9500640   4.6634300  33.2769100   5.4235860   5.1876920  32.6734240
   6.2931980   5.2961690  33.9078830   1.9818470  13.9185150  34.6913130
   1.9077170  14.8220290  34.9985500   1.0797310  13.5997050  34.6635200
   2.5303800  13.0843660  22.3139490   3.4254590  13.4228630  22.3358250
   2.5621430  12.3623070  21.6863770   9.5098150  11.6147330  35.0205690
   8.9100140  11.6739890  34.2769610   9.6392050  10.6752310  35.1502540
  10.7499600   9.3565150  20.3575400   9.9192560   9.4241800  20.8282630
  10.9271430  10.2469270  20.0542260  10.2056060   6.1012630  22.8609600
  10.9674970   6.6709280  22.9669290  10.2210430   5.5339830  23.6317910
  11.2116030   6.9562730  27.7051530  11.5824860   6.1730050  27.2987500
  11.8517960   7.6451830  27.5268830   8.1949790   8.3399310  33.1181850
   7.3809630   8.7696470  33.3807640   8.6023990   8.9517720  32.5050900
  10.2575230   6.3947000  20.0182120  10.5324070   7.3025880  19.8901340
  10.0685970   6.3309530  20.9544110  10.1540570   4.3315990  25.0111550
   9.7784170   3.5643920  24.5792840   9.4243690   4.7138690  25.4986480
   9.5440190   3.4787510  34.6451070   9.3126280   3.2500260  33.7449020
   9.8044740   4.3987060  34.5995960   9.4291530   2.5573480  28.3118790
   9.9529010   2.0636130  27.6808960  10.0150950   2.6923840  29.0566360
   9.6081250   2.6413350  31.8338340   8.6583960   2.6076890  31.9483330
   9.7894260   3.5513460  31.5988110   8.2525840  13.0917910  26.6450120
   8.8484910  12.7702480  25.9684540   8.5103990  12.6189730  27.4363390
  11.1198600  13.0989790  33.1961110  10.6256880  13.4958660  32.4788240
  10.5111890  12.4739000  33.5898390   8.8038050  13.7413210  30.4747850
   8.3441020  14.4929020  30.1005870   8.1750510  13.0219680  30.4162650
   1.9729270  12.9409940  30.4764960   2.2607080  12.6864240  29.5997970
   2.4852490  12.3887300  31.0670530  10.2746690  13.4051610  24.8407410
  10.4498880  12.7189350  24.1968330   9.5768260  13.9298660  24.4484080
   4.7338850   3.9616840   8.5490250   4.6532900   3.0471450   8.2781960
   4.3203270   4.4583910   7.8429960   2.8656890   5.7395860  10.4299520
   2.0898990   5.2596300  10.7198090   3.5169820   5.0601510  10.2555680
   6.8864320  10.1456050   9.2098650   6.4245850   9.3743290   9.5385820
   7.6989870  10.1722120   9.7151100   3.1127630  12.4314060   8.8302640
   2.4939070  12.8871560   8.2597080   3.9679410  12.5865520   8.4292340
   2.3065880   8.4153050  10.4369680   2.2374160   7.4742990  10.2758810
   3.0685740   8.5054460  11.0092250   3.9790980   7.3153300   6.2234550
   3.3608250   7.7802750   5.6597270   4.4914230   8.0080780   6.6404060
   8.9719430  10.2749380  12.6321970   8.2882950  10.9448490  12.6238640
   9.5113720  10.4730030  11.8666830   6.5078170  12.1193510  11.3467150
   6.5205330  11.7155800  10.4789410   5.9553390  12.8940800  11.2428580
   7.8023590   8.8409730   6.4357320   7.6919920   7.8984060   6.5606740
   7.7991840   9.2025370   7.3220080   5.9063610   7.0223350  12.6749760
   6.3232400   6.8083460  11.8403220   6.6303430   7.2796140  13.2458380
   3.3443870   4.4675050   5.7919810   2.4173150   4.4012430   6.0208280
   3.4968690   5.4055180   5.6775050   9.8525710   5.4210570  12.7666000
   9.0244340   5.4903660  12.2916130  10.4476190   6.0064880  12.2981830
   7.3741160   6.0295350   6.2955060   6.7553580   5.6914900   5.6481360
   7.3565610   5.3855110   7.0034250   7.5067820  12.2539220  14.4001850
   7.0298380  13.0611410  14.2074460   6.8229610  11.6017550  14.5528060
   5.5505860   5.2682160   3.3027810   5.9899140   4.4304590   3.1565630
   6.2634280   5.9011560   3.3891950   3.6601240  10.2078230   7.2709050
   4.0997150  10.9502560   6.8564440   3.5988130  10.4504800   8.1948010
  11.0867030  12.0151160  19.4693240  11.5626750  12.4934050  20.1482320
  11.7074190  11.9468650  18.7438740  10.4900280   9.2064010  16.6293250
  10.6163340   8.9675890  15.7110430  10.5321660   8.3748550  17.1015330
   4.3517020  12.9092010  15.1988060   4.8661690  12.8200020  16.0010490
   3.5086100  13.2551710  15.4915970   6.3271420  13.1947350   4.6272060
   6.1672560  12.9050290   5.5253890   6.1618130  12.4187480   4.0917290
   6.0297550  10.7034910   3.1870060   5.3362710  10.7012200   2.5272340
   6.7720410  10.2794230   2.7564230   5.5947480  12.3297620   7.2618550
   6.0504430  11.5487000   7.5757170   5.9340000  13.0404440   7.8059730
   4.4992830   2.8199060  18.2900630   4.8246240   1.9862810  17.9502860
   5.2873160   3.3427580  18.4378960   5.1380780   2.3616780   5.7841760
   4.5389670   3.0852580   5.6005380   5.6860390   2.2993560   5.0018210
   4.3300790   3.5886070  11.9095820   3.5981910   4.0972880  12.2585920
   3.9325130   2.7716050  11.6084600   8.1455290   6.5677040  10.7691170
   8.8654410   7.0632330  10.3787280   7.9437110   5.8894930  10.1245040
   3.5274090   6.6386100  16.6560170   3.4611400   5.7181770  16.4017760
   2.8979230   6.7361540  17.3704810   2.3174210   8.5058340   3.8870890
   2.6589910   9.2500570   3.3914210   1.4886920   8.8189460   4.2495720
   3.4590820   9.4606670  16.4063970   3.4735360   8.5287630  16.1882880
   2.7515920   9.5466430  17.0453740   8.5927890   3.6446490   2.6762580
   8.5091610   4.0760710   1.8259020   9.3122080   4.1044840   3.1089400
   9.6702030   6.1014010  15.7532550   8.9450220   6.6942790  15.5561940
  10.1977490   6.0937550  14.9545920   9.6215140  10.4988750   5.4044710
   8.9791300   9.8444370   5.6788430   9.2345800  10.9043840   4.6285380
   5.2001620   7.8274180   9.2516400   5.5525440   7.2302310   8.5917770
   4.3163950   7.5018410   9.4224650   2.8924720  11.1024240  13.5004470
   3.5366940  11.3083620  14.1777890   3.2554160  10.3412640  13.0475320
   4.1656800   9.1056590  12.2181920   4.8079030   8.4049750  12.3314090
   4.6906150   9.8855030  12.0378810   5.9394420   9.9051490  15.4217980
   6.2750660  10.4918180  16.0995900   5.0194760   9.7744200  15.6515770
   7.5928770   7.3077150   3.6035220   7.3050470   7.7689840   4.3913100
   8.3880940   6.8474920   3.8719440   1.7683000   9.9542820  18.5906040
   1.4479870   9.2352060  19.1351730   1.0941360  10.6297890  18.6642100
   1.9438590   2.8408570  14.1780810   2.4423840   3.3154390  14.8432660
   2.0861540   1.9172090  14.3850840   7.4427460   4.3009710   8.4670560
   6.5017600   4.3159940   8.6418250   7.7571530   3.5145670   8.9130860
   9.4453040  11.4718560  10.1424820   9.5700460  12.2949730  10.6148630
  10.3118600  11.2609290   9.7948970   4.7593480   8.8575710  18.9502940
   4.1531640   8.8807310  18.2098690   4.4547590   8.1258750  19.4870190
   6.1893850  12.5856000  17.5612350   7.1415600  12.5014020  17.5112590
   6.0422070  13.2497710  18.2346140   9.0803050  11.9650210   3.0604260
   8.7944560  11.5515350   2.2458440   8.8822600  12.8937920   2.9404780
   3.7853010   7.0203520   2.1051860   3.2363110   7.4672820   2.7494600
   4.4072270   6.5152770   2.6289530   7.8387950   8.3745620  18.0374120
   8.5797420   8.7121380  17.5341580   7.0760630   8.5437680  17.4843890
   6.5133610   6.4260450  16.5729330   6.9274630   6.5805530  17.4219750
   5.5784610   6.5515670  16.7355110   6.9855780   3.7656610  18.5768480
   7.5676550   3.0108930  18.4888960   7.1617550   4.2964050  17.7999960
   3.6112740   4.1097110  15.9263100   3.7308950   3.5138250  16.6657940
   4.4706740   4.1466800  15.5064400   5.9500640   4.6634300  14.5025610
   5.4235860   5.1876920  13.8990750   6.2931980   5.2961690  15.1335340
   1.9818470  13.9185150  15.9169640   1.9077170  14.8220290  16.2242010
   1.0797310  13.5997050  15.8891710   2.5303800  13.0843660   3.5396000
   3.4254590  13.4228630   3.5614760   2.5621430  12.3623070   2.9120280
   9.5098150  11.6147330  16.2462200   8.9100140  11.6739890  15.5026120
   9.6392050  10.6752310  16.3759050  10.2056060   6.1012630   4.0866110
  10.9674970   6.6709280   4.1925800  10.2210430   5.5339830   4.8574420
  11.2116030   6.9562730   8.9308040  11.5824860   6.1730050   8.5244010
  11.8517960   7.6451830   8.7525340   8.1949790   8.3399310  14.3438360
   7.3809630   8.7696470  14.6064150   8.6023990   8.9517720  13.7307410
  10.1540570   4.3315990   6.2368060   9.7784170   3.5643920   5.8049350
   9.4243690   4.7138690   6.7242990   9.5440190   3.4787510  15.8707580
   9.3126280   3.2500260  14.9705530   9.8044740   4.3987060  15.8252470
   9.4291530   2.5573480   9.5375300   9.9529010   2.0636130   8.9065470
  10.0150950   2.6923840  10.2822870   9.6081250   2.6413350  13.0594850
   8.6583960   2.6076890  13.1739840   9.7894260   3.5513460  12.8244620
   8.2525840  13.0917910   7.8706630   8.8484910  12.7702480   7.1941050
   8.5103990  12.6189730   8.6619900  11.1198600  13.0989790  14.4217620
  10.6256880  13.4958660  13.7044750  10.5111890  12.4739000  14.8154900
   8.8038050  13.7413210  11.7004360   8.3441020  14.4929020  11.3262380
   8.1750510  13.0219680  11.6419160   1.9729270  12.9409940  11.7021470
   2.2607080  12.6864240  10.8254480   2.4852490  12.3887300  12.2927040
   2.0401630  13.8626040  19.0689670   2.9668940  13.6270310  19.1125630
   2.0252060  14.6898040  18.5875700  10.2746690  13.4051610   6.0663920
  10.4498880  12.7189350   5.4224840   9.5768260  13.9298660   5.6740590
   8.6079190  13.0895900  18.8930710   9.4004510  12.5945130  18.6856670
   8.9012340  13.7686040  19.5006320
  42.1126750  47.1444160  39.1194970  90.0000000  90.0000000  90.0000000
